LAMMPS data file via write_data, version 27 Jun 2024, timestep = 200000, units = real

1665 atoms
5 atom types
802 bonds
1 bond types
401 angles
1 angle types

-12.120000000000001 12.120000000000001 xlo xhi
-12.120000000000001 12.120000000000001 ylo yhi
-20.2 20.2 zlo zhi

Masses

1 15.9994
2 1.008
3 28.99
4 35.453
5 26.9815

Atoms # full

1658 409 2 0.5564 0.7949215920119302 -11.200484113183975 -3.263523407101868 -1 0 0
12 0 5 0 -11.685226549079198 -10.303260338477521 -13.271376876084485 -1 -1 0
89 0 5 0 -11.669701706144101 -8.321710297293958 -11.292574424590171 -1 -1 0
36 0 5 0 -11.600680564919223 -6.298027648921122 -13.344080004822409 -1 -1 0
221 0 5 0 8.646263781395769 -0.10628079664596732 -15.241624093784711 -2 -1 0
33 0 5 0 -11.585613840148067 -8.244193197111054 -15.388185552778427 -1 -1 0
101 0 5 0 -11.705444673678958 -4.237598130864222 -11.37471650795764 -1 -1 0
57 0 5 0 -11.625658103401545 -4.235251574572975 -15.422022581495401 -1 -1 0
10 0 5 0 -9.615917972286455 -10.31199201856388 -15.156589184899502 -1 -1 0
231 0 5 0 -5.620980482935233 -0.1365435417304858 -13.3592996353024 -1 -1 0
35 0 5 0 -9.582820788227611 -8.210069215594041 -13.272071119503076 -1 -1 0
78 0 5 0 -9.532471726975755 -10.19178418111385 -11.228155452441626 -1 -1 0
90 0 5 0 -9.607157987552045 -6.161983721265975 -11.238866478135618 -1 -1 0
34 0 5 0 -9.603934957537945 -6.221403376605411 -15.403959548281628 -1 -1 0
59 0 5 0 -9.593507086958576 -4.209049990637534 -13.348063734409035 -1 -1 0
513 27 2 0.5564 -2.2717232347556076 -12.044843234136547 -0.4200659049811022 -1 -1 0
37 0 5 0 -7.635749872213772 -8.235445500353466 -15.340557020648747 -1 -1 0
91 0 5 0 -7.562674222513297 -8.11867483803935 -11.13536647224786 -1 -1 0
2128 566 1 -1.1128 8.641171199730538 -11.383110417569934 -5.415288252483493 -2 0 0
16 0 5 0 -7.4776961169118845 -10.302564272394562 -13.202349357496495 -1 -1 0
40 0 5 0 -7.58350194640279 -6.229314607456221 -13.34493110101875 -1 -1 0
103 0 5 0 -7.467440920915162 -4.1539493504287455 -11.324241368642035 -1 -1 0
61 0 5 0 -7.529883459288107 -4.179806662046773 -15.455016119652974 -1 -1 0
64 0 5 0 -7.591050910044729 -2.280345653285248 -13.370322974959233 -1 -1 0
60 0 5 0 -11.617780655915777 -2.2861648217566266 -13.28377641902539 -1 -1 0
102 0 5 0 -9.603583559950513 -2.2911092088920006 -11.210102417806022 -1 -1 0
58 0 5 0 -9.651261931384804 -2.168002516242025 -15.383882252208682 -1 -1 0
63 0 5 0 -5.509163547514853 -4.220045109553514 -13.436334988043226 -1 -1 0
92 0 5 0 -5.531420094095618 -6.2221182206321 -11.31086597678276 -1 -1 0
511 27 1 -1.1128 -1.3365138711484412 -11.928953971922434 -0.25218020080415904 -1 -1 0
14 0 5 0 -5.565758986082757 -10.315229935352576 -15.23482548950165 -1 -1 0
80 0 5 0 -5.538083595552708 -10.25375379930628 -11.191647303598357 -1 -1 0
39 0 5 0 -5.533284090525079 -8.231995723526017 -13.320416122645643 -1 -1 0
38 0 5 0 -5.594761541262803 -6.286193817159502 -15.40058875410792 -1 -1 0
62 0 5 0 -5.51881855050909 -2.1785839127341196 -15.36223092840187 -1 -1 0
104 0 5 0 -5.412395190963141 -2.1926364740409703 -11.438084310927099 -1 -1 0
1688 419 2 0.5564 -3.0048923106186733 -12.106730495220374 -3.8542006583145003 -1 0 0
237 0 5 0 0.5346778098507472 -0.09383998885574267 -15.554871144494928 -1 -1 0
20 0 5 0 -3.529602390230144 -10.42531448499356 -13.276917683922212 -1 -1 0
93 0 5 0 -3.5087207362348223 -8.253735102475938 -11.376006018405166 -1 -1 0
41 0 5 0 -3.5205214254223547 -8.31793939489585 -15.344388734632972 -1 -1 0
44 0 5 0 -3.5331368320911474 -6.21394651570843 -13.42008347807826 -1 -1 0
65 0 5 0 -3.536266555102243 -4.255020307509566 -15.472003583173471 -1 -1 0
105 0 5 0 -3.493160103711489 -4.266042713479072 -11.409530137292293 -1 -1 0
18 0 5 0 -1.5674207341914852 -10.377886712635565 -15.389456519424382 -1 -1 0
67 0 5 0 -1.576923973909313 -4.218580859714608 -13.497683688426042 -1 -1 0
239 0 5 0 2.5250352367291797 -0.2208241459419792 -13.476050104543374 -1 -1 0
82 0 5 0 -1.5079164074041898 -10.321243915161958 -11.337942586945898 -1 -1 0
43 0 5 0 -1.4951342304791715 -8.364134829151823 -13.404193536634748 -1 -1 0
42 0 5 0 -1.4404696987980445 -6.311067648164828 -15.456716706987315 -1 -1 0
94 0 5 0 -1.4812551848144908 -6.260463231029142 -11.479973095268477 -1 -1 0
107 0 5 0 0.5170036173262234 -4.249396303230737 -11.570658083304329 -1 -1 0
233 0 5 0 -3.648182819004443 -0.08952853843870415 -15.318548458145946 -1 -1 0
24 0 5 0 0.5227311333024134 -10.355511042269857 -13.289371449729197 -1 -1 0
95 0 5 0 0.5811303490138351 -8.288472893555843 -11.396693896941162 -1 -1 0
668 79 2 0.5564 -4.466203918056983 -11.623713546001305 -8.994067194758044 -1 -1 0
45 0 5 0 0.5085877218411197 -8.328218428098689 -15.400254392800035 -1 -1 0
48 0 5 0 0.49608054211172714 -6.265186446785109 -13.460720896956296 -1 -1 0
69 0 5 0 0.4520867445233421 -4.196722353686555 -15.464696400205789 -1 -1 0
66 0 5 0 -1.5732973593753394 -2.1557976358706696 -15.551475176880786 -1 -1 0
68 0 5 0 -3.562748858894484 -2.252299826180165 -13.44632363038735 -1 -1 0
72 0 5 0 0.4503784809360467 -2.2180463792057457 -13.53443475786315 -1 -1 0
106 0 5 0 -1.514395615443481 -2.218528395976441 -11.447438732711975 -1 -1 0
84 0 5 0 2.5981382155598203 -10.302976598549106 -11.353335206030168 -1 -1 0
2129 566 2 0.5564 8.906509642050793 -11.598996860651276 -6.3092785711409185 -2 0 0
22 0 5 0 2.447030539177385 -10.422392395466025 -15.403932987696935 -1 -1 0
47 0 5 0 2.4707952552389583 -8.345449803361896 -13.445621317325298 -1 -1 0
96 0 5 0 2.5208081647640217 -6.2707278292714275 -11.506262315897489 -1 -1 0
46 0 5 0 2.4573117200562153 -6.28265011406703 -15.51037414909493 -1 -1 0
71 0 5 0 2.4959692078730664 -4.2553818772219545 -13.556184655380001 -1 -1 0
70 0 5 0 2.5067165393051867 -2.1415150596686092 -15.537439282864138 -1 -1 0
108 0 5 0 2.5405999665872594 -2.2928483730497953 -11.614476547266705 -1 -1 0
31 0 5 0 10.589948185063172 -8.30917785867454 -13.314212930295273 -2 -1 0
1974 514 2 0.5564 4.536380183608791 -11.200146760315294 -2.458173326439156 -1 0 0
76 0 5 0 10.617135218216472 -10.352055756857501 -11.25696327127249 -2 -1 0
6 0 5 0 10.648538780255292 -10.271378871593253 -15.418023877530349 -2 -1 0
88 0 5 0 10.524040922403138 -6.212909703611401 -11.337018549459572 -2 -1 0
30 0 5 0 10.633378495499617 -6.229495940945147 -15.36910093929478 -2 -1 0
55 0 5 0 10.588517298082444 -4.236583671282504 -13.401567245568717 -2 -1 0
54 0 5 0 10.62109073208012 -2.2014855381117853 -15.264598440207493 -2 -1 0
32 0 5 0 8.560213340917404 -6.297790792092512 -13.419151458051214 -2 -1 0
87 0 5 0 8.575393368541368 -8.396047523411834 -11.374314418358376 -2 -1 0
8 0 5 0 8.632621496335762 -10.3236032009758 -13.43012650566592 -2 -1 0
225 0 5 0 -11.610649661080755 -0.21159748748153856 -15.282373117246252 -1 -1 0
29 0 5 0 8.641085511381318 -8.370957628824995 -15.461194454849805 -2 -1 0
53 0 5 0 8.627072881090006 -4.233181211704097 -15.303760344460796 -2 -1 0
99 0 5 0 8.554975651531294 -4.2407483353783295 -11.355373087199448 -2 -1 0
1373 314 2 0.5564 0.8688882244856577 -6.277488620569199 -0.2980192110727237 0 -1 0
2 0 5 0 6.53462237819121 -10.343747231872314 -15.447769505307784 -2 -1 0
27 0 5 0 6.543332827771243 -8.282069436351385 -13.418975663140872 -2 -1 0
86 0 5 0 6.569201190909116 -6.34493948735165 -11.402375480625622 -2 -1 0
26 0 5 0 6.661186536139833 -6.290377317400132 -15.482052781225672 -2 -1 0
51 0 5 0 6.5415037096894535 -4.2262488159143485 -13.408095029642658 -2 -1 0
297 0 5 0 -3.557904996530731 -0.2045483419115453 -11.451568515714904 -1 -1 0
74 0 5 0 6.453787742673537 -10.302121235080318 -11.365552840046 -2 -1 0
49 0 5 0 4.589474681114246 -4.16767252264721 -15.576153644438266 -2 -1 0
1106 225 2 0.5564 -12.037552999953096 -11.367194698771502 -0.9358896921171961 1 -1 0
4 0 5 0 4.5066390672428716 -10.311248499049434 -13.533249849021143 -2 -1 0
695 88 2 0.5564 -4.657011126580878 -11.693619562246758 -1.056270282814967 1 -1 0
25 0 5 0 4.44873323845979 -8.272521114379499 -15.578976309425107 -2 -1 0
85 0 5 0 4.446452960725365 -8.239897242246949 -11.449917231794885 -2 -1 0
28 0 5 0 4.5009730592435275 -6.169638450640425 -13.560136529695962 -2 -1 0
97 0 5 0 4.477605018850452 -4.292644468877409 -11.443478353454482 -2 -1 0
50 0 5 0 6.692232552132789 -2.1395916051179773 -15.398402849944729 -2 -1 0
56 0 5 0 8.575966762542278 -2.253562203872905 -13.308644869968479 -2 -1 0
98 0 5 0 6.448069134772087 -2.2909330123026246 -11.325814096463361 -2 -1 0
52 0 5 0 4.572277402552706 -2.24787983894876 -13.497238511648082 -2 -1 0
100 0 5 0 10.516956280122535 -2.2684936427870013 -11.286165375139163 -2 -1 0
774 114 2 0.5564 -9.206780340758927 -8.020720472960207 -7.721159628801347 0 -1 0
830 133 2 0.5564 0.8027490870895735 -11.493562130850421 -6.130759278823707 -1 0 0
753 107 2 0.5564 11.730003457722233 -9.698902130338736 -9.015966886683422 -2 -1 0
553 41 1 -1.1128 -7.595456835657013 -5.551924618500903 -3.4563729844823414 0 -1 0
773 114 2 0.5564 -10.397980332828554 -7.566620345482299 -8.53769298318274 0 -1 0
1690 420 1 -1.1128 -11.275773978762377 -5.135371235811823 -3.347440262844521 0 -1 0
752 107 2 0.5564 -10.99960944481874 -9.600529133628362 -9.046777017558666 -1 -1 0
846 138 2 0.5564 -5.736695434724735 -3.099713231704349 -3.941432668978787 0 -1 0
1691 420 2 0.5564 -11.54053610341894 -4.291510782910872 -2.9813334646980882 0 -1 0
845 138 2 0.5564 -6.737345141108268 -3.8615164352089533 -3.098672271046877 0 -1 0
2396 0 4 -1 -11.789672644065883 -5.8749593250456495 -8.513116139954443 -1 -1 0
844 138 1 -1.1128 -6.347437732916337 -2.994695729217068 -3.21191454506885 0 -1 0
751 107 1 -1.1128 -11.717051983954116 -10.234176647426551 -9.046816646054094 -1 -1 0
1460 343 2 0.5564 -11.500158505380648 -10.465845671565058 -6.286754347354036 0 0 0
1167 245 2 0.5564 -10.90420576412991 -5.855373880583308 -5.148988827089562 -1 -1 0
1459 343 1 -1.1128 -11.177465164096402 -11.36672948941039 -6.309327123555891 0 0 0
1461 343 2 0.5564 -10.255750164413987 -11.297798527980108 -6.060482839659758 0 0 0
1266 278 2 0.5564 -11.390741025522855 -3.2583971234877356 -0.9733869808950706 0 -1 0
729 99 2 0.5564 -10.29093426675244 -4.579120050548046 -8.798774114500883 -1 -1 0
1166 245 2 0.5564 -11.190677412295946 -6.090626541704973 -6.616806956488246 -1 -1 0
1165 245 1 -1.1128 -10.744237248126028 -6.473879539249674 -5.861795171937824 -1 -1 0
1264 278 1 -1.1128 -10.948999623889714 -2.9178714968714665 -1.751292535719348 0 -1 0
1265 278 2 0.5564 -10.503158745127417 -2.1272591259338194 -1.4473303823598125 0 -1 0
727 99 1 -1.1128 -9.528817766023709 -4.002873914772052 -8.85666688734009 -1 -1 0
804 124 2 0.5564 -10.94639465644225 -2.5432918935031354 -9.682355947640461 -1 -1 0
772 114 1 -1.1128 -9.796655268064644 -8.302086415980593 -8.420525422353666 0 -1 0
1985 518 2 0.5564 -6.525382743346538 -10.52446205221399 -2.93222419706625 -1 0 0
1984 518 1 -1.1128 -6.829483039003833 -9.771178961932701 -3.4385046520779303 -1 0 0
728 99 2 0.5564 -8.989077378202724 -4.3874548286931665 -9.547325774099553 -1 -1 0
471 13 2 0.5564 -8.642271317254728 -11.57480777635328 -8.297022598640561 -1 -1 0
2390 0 3 1 -6.970426075363819 -9.869698062074018 -5.660731056959931 -1 0 0
672 80 2 0.5564 -7.781613968221097 -9.454898874713592 -8.599352492301415 -1 -1 0
741 103 2 0.5564 -8.918814537882144 -11.222768047165312 -4.309821678780425 -1 -1 0
739 103 1 -1.1128 -8.700248934279324 -11.489471642949168 -5.2027563601361555 -1 -1 0
1484 351 2 0.5564 -8.801744496173448 -5.3649683148811 -7.290117237478185 -1 -1 0
1138 236 1 -1.1128 -1.4354684229467134 -0.43979656818266527 -4.043068919432082 -1 -2 0
2231 600 2 0.5564 -10.536919042572874 -9.007477881186604 -0.9629210841436353 1 -1 0
1483 351 1 -1.1128 -8.180409800901906 -5.772369028878571 -6.686630183405265 -1 -1 0
670 80 1 -1.1128 -7.4102423940892725 -9.994736276157193 -7.901575700334412 -1 -1 0
986 185 2 0.5564 -10.673691170761918 -10.142650398163363 -3.0171420089955823 0 -1 0
1485 351 2 0.5564 -8.543750531777773 -5.602836593813979 -5.817449109503465 -1 -1 0
650 73 2 0.5564 -8.142701769121242 -2.694561541519838 -3.8272786663603156 -1 -2 0
1272 280 2 0.5564 -9.501359114665687 -2.415524891635303 -5.832185269275122 0 -1 0
1986 518 2 0.5564 -6.458216223256175 -9.013053301468469 -2.9872441506748926 -1 0 0
985 185 1 -1.1128 -9.870398466693771 -10.569573822884761 -2.7193355111956428 0 -1 0
671 80 2 0.5564 -6.5386282920153835 -10.230915953791985 -8.218975187912 -1 -1 0
886 152 1 -1.1128 -8.33245132796292 -8.134547794266831 -5.365607932730539 -1 -1 0
888 152 2 0.5564 -9.266470099193238 -7.9568832468002615 -5.25480513844189 -1 -1 0
1562 377 2 0.5564 -5.180174225216368 -7.9489695053761364 -2.441893861647926 0 0 0
1122 230 2 0.5564 -6.8474331568874 -1.5514381829894197 -2.1151682754721017 -1 -1 0
887 152 2 0.5564 -8.02185104017731 -7.435659383799295 -5.941207660216541 -1 -1 0
1506 358 2 0.5564 -6.427763414837472 -5.248842452626126 -7.526178932263602 -1 0 0
649 73 1 -1.1128 -9.072404610730263 -2.5590732996470487 -4.010387930504645 -1 -2 0
1561 377 1 -1.1128 -6.024024024095908 -7.530495711625911 -2.271505561552126 0 0 0
1504 358 1 -1.1128 -5.747950445721484 -4.852380924217432 -8.071070436569174 -1 0 0
1334 301 2 0.5564 -11.503418417626008 -1.7730065442162444 -6.5898507767668315 -1 -1 0
786 118 2 0.5564 -12.060250106438128 -8.03775022262234 -6.19790045784948 0 -1 0
1270 280 1 -1.1128 -9.459079014943237 -2.066466743599548 -6.72246833085569 0 -1 0
555 41 2 0.5564 -8.152046019588138 -5.746536781573652 -2.702337851039984 0 -1 0
1271 280 2 0.5564 -9.75417849171682 -2.7883115057766887 -7.277527320625459 0 -1 0
554 41 2 0.5564 -6.86307345952453 -6.163265971257041 -3.378201751974497 0 -1 0
1457 342 2 0.5564 -4.2575547798026845 -4.159434829985038 -5.21491256796243 -1 0 0
1563 377 2 0.5564 -6.034500517894422 -7.3880529904236285 -1.3250211110298362 0 0 0
1768 446 1 -1.1128 -4.58933952026467 -8.673013832135966 -8.663688417570778 -1 0 0
1505 358 2 0.5564 -6.134569864431721 -4.032444621624271 -8.378417903190321 -1 0 0
2230 600 1 -1.1128 -10.156063420550376 -8.548978833223114 -0.21395040927225806 1 -1 0
987 185 2 0.5564 -9.179705083285407 -9.930566671481687 -2.8949698240500346 0 -1 0
1456 342 1 -1.1128 -4.178920264946038 -3.2067777961384665 -5.1649716119096505 -1 0 0
2395 0 4 -1 4.253577244286853 -2.1415479827905575 -8.407927907278971 -1 -1 0
651 73 2 0.5564 -9.50303064817457 -2.6736065081457534 -3.1632314094690317 -1 -2 0
2164 578 1 -1.1128 -7.084043117412132 -2.3559589595274226 -8.492790857589986 -1 -1 0
1408 326 1 -1.1128 -9.498554296082197 -6.214444602950179 -1.583105738429893 0 0 0
2165 578 2 0.5564 -7.712914592294512 -2.443456163065122 -7.776485723144628 -1 -1 0
523 31 1 -1.1128 -5.155555851421286 -11.367566818253852 -5.998582584132707 -1 -1 0
1289 286 2 0.5564 -6.610805427327591 -2.0757153798625034 -0.3285172370604553 0 -1 0
1048 206 1 -1.1128 -5.3800056141173265 -8.200237994322569 -6.153027252683198 0 -1 0
1248 272 2 0.5564 -4.633538322995586 -6.495088521468532 -5.4734039820334734 -1 -1 0
524 31 2 0.5564 -5.002337262023249 -11.901991815982935 -5.219385730042986 -1 -1 0
525 31 2 0.5564 -4.298878872443946 -11.308783804700086 -6.421525902042121 -1 -1 0
1409 326 2 0.5564 -10.232190218466991 -5.832204125935679 -2.0646690476113156 0 0 0
1410 326 2 0.5564 -9.327468278670157 -5.594198921816041 -0.8744031253083222 0 0 0
802 124 1 -1.1128 -11.680665517275898 -2.266248961959519 -9.134338727851306 -1 -1 0
454 8 1 -1.1128 -9.377857805788251 -1.0484919494155298 -0.5868313989443013 0 -1 0
1050 206 2 0.5564 -5.437644626073349 -8.327014177069762 -7.100042328356551 0 -1 0
1120 230 1 -1.1128 -6.931442674841772 -0.8851900185811273 -1.4330481079529336 -1 -1 0
1121 230 2 0.5564 -7.8486145741700115 -0.9323100647997561 -1.1632159440692267 -1 -1 0
1023 197 2 0.5564 -4.738454200816562 -3.4159687654198603 -1.8482346062464525 0 -1 0
998 189 2 0.5564 -9.133121335789857 -0.6031711831673172 -3.8431599141187354 1 -1 0
1262 277 2 0.5564 4.7821852096329645 -3.9555546143281273 -1.3145045436759089 0 -1 0
227 0 5 0 -9.549479170993688 -0.27343334813568365 -13.35205736422315 -1 -1 0
1769 446 2 0.5564 -4.0817054853403745 -7.889059167232974 -8.873342543314862 -1 0 0
1049 206 2 0.5564 -4.569329348186839 -8.64220480680303 -5.900634162221033 0 -1 0
860 143 2 0.5564 -2.7679049562065505 -3.2057062065145834 -0.6060070138084344 0 -1 0
1770 446 2 0.5564 -3.948221236320318 -9.284098726235266 -8.300680512293587 -1 0 0
854 141 2 0.5564 7.955849962431334 -4.9310526046896355 -8.546383819800706 -1 -1 0
229 0 5 0 -7.574981286499366 -0.27098665234609354 -15.430526823553219 -1 -1 0
794 121 2 0.5564 8.996969257734241 -9.689937615672795 -8.866425961470837 -2 -1 0
1021 197 1 -1.1128 -4.3355064175850835 -4.029498772948708 -1.2338679119582618 0 -1 0
1156 242 1 -1.1128 7.603726157928125 -10.801380191749816 -1.8343314115014093 1 -1 0
2166 578 2 0.5564 -6.806379271205866 -1.4405804313943105 -8.457897234757986 -1 -1 0
1022 197 2 0.5564 -4.8450676609250545 -3.93295631954637 -0.4293429643846604 0 -1 0
570 46 2 0.5564 -5.0754666480846815 -1.2562198595265015 -5.585397416359098 0 -1 0
778 116 1 -1.1128 9.918770953028533 -2.397405200047276 -4.585826596608965 0 -1 0
859 143 1 -1.1128 -2.561426163863434 -2.416503673072403 -0.10525009999901844 0 -1 0
1374 314 2 0.5564 -0.08231896930543042 -5.1008884007347675 -0.35005039241552816 0 -1 0
857 142 2 0.5564 2.0260179522879844 -3.0300362054402203 -0.252390374899631 -1 -1 0
235 0 5 0 -1.5461968065977816 -0.2291204667944731 -13.437462208272787 -1 -1 0
694 88 1 -1.1128 -4.205482494844186 -11.164729290803018 -0.3985241323119263 1 -1 0
2257 609 1 -1.1128 6.723944785204456 -4.992885709437257 -5.389973431930686 0 0 0
667 79 1 -1.1128 -5.279675872464271 -12.112658273056763 -8.86985680481633 -1 -1 0
736 102 1 -1.1128 -3.717285115970574 -1.3483489860398825 -2.5706345494395673 -1 -1 0
2186 585 2 0.5564 -0.6711244176301239 -9.11566101059434 -0.9707152103719263 0 -1 0
1140 236 2 0.5564 -2.0490222422353583 -0.9832693772465482 -3.548679325463156 -1 -2 0
1458 342 2 0.5564 -3.360296649529679 -3.0580294328342714 -4.6917266397375395 -1 0 0
1300 290 1 -1.1128 0.027622737098531858 -3.341700856094257 -0.37143371090064753 0 -2 0
2232 600 2 0.5564 -9.954551522761932 -7.673902058080056 -0.5454112793567937 1 -1 0
812 127 2 0.5564 -3.1140537698703277 -9.014287925140549 -3.8357288837123837 -1 0 0
811 127 1 -1.1128 -2.8582946766849613 -8.934733574914144 -4.754690291678717 -1 0 0
1246 272 1 -1.1128 -3.8363793536665636 -6.048196587270808 -5.188700838740455 -1 -1 0
1076 215 2 0.5564 -3.216331990733736 -6.1073037327837865 -3.395573477905618 0 -1 0
1247 272 2 0.5564 -3.157122315710852 -6.367299406853686 -5.782852660355381 -1 -1 0
481 17 1 -1.1128 10.227176607875617 -8.145044283538109 -8.604479391569708 -1 -2 0
1402 324 1 -1.1128 7.852007727347541 -0.91633299677596 -5.6754640452735865 0 -1 0
1301 290 2 0.5564 -0.16342787623046814 -3.292752026417807 -1.3080958152362743 0 -2 0
2187 585 2 0.5564 -0.1501532052864263 -7.704081370650699 -1.137842320466966 0 -1 0
512 27 2 0.5564 -0.9382547435623073 -11.900379341937642 -1.1221258244857182 -1 -1 0
2178 582 2 0.5564 2.69666943441487 -11.97071274947107 -0.6335761924302549 1 0 0
1779 449 2 0.5564 -3.9269381908218945 -3.1262363840970258 -8.577146949504264 -1 -1 0
509 26 2 0.5564 1.4759368017104162 -1.1245576759886982 -3.278335122610649 -1 -1 0
2189 586 2 0.5564 -0.9726247751323148 -3.9976506603500503 -3.965785128877785 -1 -1 0
858 142 2 0.5564 3.045639418629347 -2.739368576520623 -1.3330281555032644 -1 -1 0
856 142 1 -1.1128 2.7517747242467263 -2.4453901800379128 -0.47079180798314174 -1 -1 0
1001 190 2 0.5564 -1.3843473505080643 -4.700227666189569 -9.27527227448517 -1 -1 0
813 127 2 0.5564 -1.9598498477990742 -8.605779884030287 -4.726136172915016 -1 0 0
1008 192 2 0.5564 0.9969471588545045 -11.768677429541448 -8.87310239634479 -1 -1 0
567 45 2 0.5564 -0.8895804245225495 -8.66267898376027 -9.451906958862397 -1 -1 0
1925 498 2 0.5564 0.003521616102575265 -8.54104845727998 -3.4233006191129283 -1 0 0
1924 498 1 -1.1128 -0.2846896284895979 -8.11118639702667 -4.228524580505922 -1 0 0
1926 498 2 0.5564 0.2823734032378371 -8.472626171221574 -4.909724380609176 -1 0 0
604 58 1 -1.1128 -3.301689424606721 -6.233589492477948 -9.062371450239958 -1 -1 0
738 102 2 0.5564 -3.3173383611748872 -1.5433916385168578 -1.7231490657623192 -1 -1 0
2360 643 2 0.5564 -3.844391313007937 -9.951774775239187 -1.6490929135179384 0 0 0
2359 643 1 -1.1128 -3.6349528565046976 -9.137180517559875 -2.1060427303008025 0 0 0
2361 643 2 0.5564 -3.3122952803859738 -8.553147804833001 -1.4197275443394681 0 0 0
1026 198 2 0.5564 -2.3558798231047144 -6.692213728654034 -0.7010043722395584 0 -1 0
605 58 2 0.5564 -4.0529210030053555 -5.851255524122768 -8.6088215447229 -1 -1 0
606 58 2 0.5564 -2.6717638757688507 -6.42193840199674 -8.366709104360664 -1 -1 0
2401 0 4 -1 -2.620591975946741 -10.697715741890905 -8.123168256516013 -1 0 0
566 45 2 0.5564 -1.132128023344982 -9.619234896565548 -8.303835796908194 -1 -1 0
1007 192 2 0.5564 -0.4798418100646061 -11.622000965957223 -8.57398212732878 -1 -1 0
1000 190 1 -1.1128 -0.8947367712460348 -3.9929924296574826 -8.855354420362392 -1 -1 0
565 45 1 -1.1128 -0.5164435300522245 -8.958818688131538 -8.621665173038114 -1 -1 0
1075 215 1 -1.1128 -2.8753048023451013 -5.795076403888268 -2.5574518641161714 0 -1 0
1002 190 2 0.5564 -1.5651191362264365 -3.4513957685477457 -8.43882971240279 -1 -1 0
968 179 2 0.5564 -0.8097046181949288 -6.391541417795988 -6.717814350307447 -1 -1 0
969 179 2 0.5564 -1.3399036433492235 -7.660735406572635 -7.350215470284652 -1 -1 0
967 179 1 -1.1128 -1.6008886678479628 -6.775719043190752 -7.095527998255271 -1 -1 0
1966 512 1 -1.1128 -1.234745536135092 -2.9442362581107977 -5.6193479394326635 -1 -1 0
535 35 1 -1.1128 2.7349974879068895 -8.740543421835325 -1.6054972623490593 -1 -1 0
1968 512 2 0.5564 -0.4018183606548132 -3.4022277018513583 -5.732088638472133 -1 -1 0
592 54 1 -1.1128 1.8848510824888358 -5.03415413714766 -3.448908410771693 -1 -1 0
937 169 1 -1.1128 2.384944765205874 -4.417444660516879 -9.212945256102884 -2 -1 0
2180 583 2 0.5564 1.2973807362452883 -8.825363501884537 -7.978934544900877 1 0 0
537 35 2 0.5564 1.8106292857794557 -8.84612456022679 -1.3804944328832782 -1 -1 0
938 169 2 0.5564 1.9783908581644607 -4.135479445994553 -10.032361803884116 -2 -1 0
939 169 2 0.5564 2.9202284984410616 -3.6717456940373783 -8.941585783094652 -2 -1 0
805 125 1 -1.1128 -1.7933811323339908 -11.666273396845787 -5.377037990449069 -2 0 0
2181 583 2 0.5564 2.7274116012505463 -8.90350035736617 -7.488216005495251 1 0 0
594 54 2 0.5564 1.998469865178892 -5.700082338402751 -2.7707769910482996 -1 -1 0
807 125 2 0.5564 -1.725871329094789 -10.807095562245758 -4.960519442872279 -2 0 0
1903 491 1 -1.1128 0.7604372814839842 -4.993126585512309 -6.610683384677833 -1 -1 0
593 54 2 0.5564 1.013422838298916 -4.67281193520778 -3.2868096846300143 -1 -1 0
835 135 1 -1.1128 0.5557471874665222 -1.3346971712327649 -9.008733994923517 -1 -1 0
1905 491 2 0.5564 1.5720224412937305 -4.542484511787718 -6.377259420481632 -1 -1 0
2179 583 1 -1.1128 1.8606724550813227 -8.577598158627318 -7.2457587616261385 1 0 0
1904 491 2 0.5564 0.67108586939321 -4.853634451979838 -7.553440681262789 -1 -1 0
1778 449 2 0.5564 -3.5292965041569024 -2.910337341998397 -7.132444313342199 -1 -1 0
814 128 1 -1.1128 3.211853818629713 -11.713181865991146 -8.84831738643067 -1 0 0
1777 449 1 -1.1128 -3.2587045507403567 -2.714290344595159 -8.029426834017197 -1 -1 0
1967 512 2 0.5564 -1.0900386149389591 -2.0830178307372496 -6.011259305431565 -1 -1 0
837 135 2 0.5564 0.3223878440701299 -2.2194288430518934 -8.727617769297767 -1 -1 0
2188 586 1 -1.1128 -0.7996472453601183 -3.9842536404875015 -3.0244400042297905 -1 -1 0
2190 586 2 0.5564 -1.365015101074018 -4.66884749853715 -2.666777142846883 -1 -1 0
1077 215 2 0.5564 -3.6160486664340827 -5.3472774644514205 -2.148783913185789 0 -1 0
806 125 2 0.5564 -1.8597550680097135 -11.474895837417483 -6.312559831444221 -2 0 0
1364 311 2 0.5564 3.0256000017134705 -3.749227581580517 -3.1282677146326354 0 -2 0
1363 311 1 -1.1128 3.756660902227824 -3.1461892119279966 -2.993643916484887 0 -2 0
597 55 2 0.5564 3.5757758253100045 -6.557889259395385 -9.598861099017332 -2 -1 0
1365 311 2 0.5564 3.999009364208279 -2.862286801001122 -3.8750626596217312 0 -2 0
579 49 2 0.5564 2.735651539047997 -5.885244895559548 -5.250683310541395 -2 -1 0
577 49 1 -1.1128 3.2621449228751365 -6.504805340846355 -5.755837871239544 -2 -1 0
578 49 2 0.5564 2.622092189209551 -7.09427178593382 -6.154704128458869 -2 -1 0
1372 314 1 -1.1128 0.017179775864323045 -6.007272774915671 -0.6412525768601831 0 -1 0
2185 585 1 -1.1128 0.03212697231021877 -8.611902600926026 -1.3804680469278579 0 -1 0
1834 468 1 -1.1128 4.99703279971142 -1.3549872212915468 -5.121811748260739 0 -1 0
816 128 2 0.5564 3.587861948368953 -10.91036480672109 -8.487298937982032 -1 0 0
836 135 2 0.5564 -0.05685947845935825 -0.7654787439097474 -8.542972586989263 -1 -1 0
485 18 2 0.5564 5.837841973937388 -3.6658445925577343 -8.71633594297407 -1 -1 0
299 0 5 0 0.555074230589248 -0.29713133220339977 -11.555263557970827 -1 -1 0
716 95 2 0.5564 3.478147754568688 -3.2634561758372205 -6.731539887295732 0 -1 0
715 95 1 -1.1128 3.1580188924400026 -3.727361513143522 -5.957887472090314 0 -1 0
1558 376 1 -1.1128 7.769768473033768 -8.427457414058363 -6.3311600337044025 -2 0 0
1851 473 2 0.5564 -9.608302833789763 -0.6808347971535819 -7.837193424459818 -1 -1 0
631 67 1 -1.1128 4.349411392423969 -9.3527631849894 -7.836885571460507 -1 -1 0
510 26 2 0.5564 0.3685162584880665 -0.4619235073290042 -4.069811485238923 -1 -1 0
498 22 2 0.5564 6.941639658755311 -3.6868501772529485 -3.999335439726066 0 -1 0
486 18 2 0.5564 5.3963772597117785 -5.102306138759705 -8.53307810658686 -1 -1 0
785 118 2 0.5564 11.096783071611332 -8.662916639087637 -7.0512740632927775 -1 -1 0
784 118 1 -1.1128 11.623700785311446 -8.813850001259478 -6.266538043341961 -1 -1 0
582 50 2 0.5564 6.163309971101367 -6.324052444425816 -4.205316429418448 -2 -1 0
1333 301 1 -1.1128 12.033799485398978 -1.2186341939427325 -6.250729495437612 -2 -1 0
2306 625 2 0.5564 9.934124713537617 -7.283295506495428 -0.4556407059805658 0 0 0
1335 301 2 0.5564 11.411490057898655 -1.1502436373078764 -6.974802974997774 -2 -1 0
1917 495 2 0.5564 8.070808911787676 -9.267779753521992 -2.854897259866824 -1 -1 0
1404 324 2 0.5564 6.920128102593446 -1.1337038152023495 -5.6995869871522835 0 -1 0
508 26 1 -1.1128 1.2853166161910932 -0.7305075751125791 -4.129581846255856 -1 -1 0
963 177 2 0.5564 9.534120499359087 -2.416172923825025 -2.6509766699212176 -1 -1 0
496 22 1 -1.1128 6.814900074781612 -3.0783781171347786 -3.2713726318858476 0 -1 0
750 106 2 0.5564 9.517721738456334 -5.489434077016971 -2.796654605793593 -1 -1 0
654 74 2 0.5564 -2.40404950419094 -0.8561712849526397 -8.205312816160198 -1 -1 0
1679 416 2 0.5564 -1.6182103491195363 -0.34111753283025426 -0.2134831170342785 1 -1 0
1559 376 2 0.5564 8.066694751993936 -8.520405419391153 -5.425936609132365 -2 0 0
749 106 2 0.5564 10.42528105734581 -6.633101268911568 -2.396329482173157 -1 -1 0
1016 195 2 0.5564 8.109829601186297 -5.6187138361997455 -0.7986167510529248 -1 -1 0
795 121 2 0.5564 8.885631204548433 -11.120329416602097 -8.383230842306189 -2 -1 0
2392 0 4 -1 9.299478620069133 -2.1869805466859598 -7.94625652278821 -1 -1 0
534 34 2 0.5564 2.0239788536999304 -0.2763349917580381 -5.500920921408215 -2 -1 0
961 177 1 -1.1128 9.716861470086167 -2.141301940251142 -1.7524862314817538 -1 -1 0
1692 420 2 0.5564 -12.07743617545283 -5.658406735767505 -3.3490656613445497 0 -1 0
482 17 2 0.5564 9.420294489867143 -7.778203556877914 -8.243089630615478 -1 -2 0
217 0 5 0 4.638311025430203 -0.18471284581734745 -15.335905954924877 -2 -1 0
803 124 2 0.5564 -11.676768073081723 -1.310851517182481 -9.192932829330186 -1 -1 0
2386 0 3 1 7.247663637671416 -2.8942989845384637 -0.9484328884573981 -1 0 0
448 6 1 -1.1128 5.1658273704010504 -8.95462880767596 -5.251111877672123 -1 -1 0
2372 647 2 0.5564 4.608384620260672 -8.99827672214954 -2.2169596472251127 -1 0 0
536 35 2 0.5564 3.103529336066501 -8.240011705623258 -0.8775637299860061 -1 -1 0
2371 647 1 -1.1128 5.188587571916008 -9.65170317411146 -2.6076403789625333 -1 0 0
596 55 2 0.5564 3.5577774488362075 -6.408441900014317 -8.09246243123265 -2 -1 0
595 55 1 -1.1128 3.947033363395592 -6.926237005464076 -8.797161403756762 -2 -1 0
2085 551 2 0.5564 9.738226542510043 -10.274393498681004 -4.296747442531894 -1 -1 0
717 95 2 0.5564 3.704064759549687 -4.511776795621009 -5.905371018890634 0 -1 0
1005 191 2 0.5564 5.556466825971238 -0.6502266083994244 -0.8969743010098519 0 -1 0
1015 195 1 -1.1128 8.158964217782158 -5.072221492113076 -1.582940800034791 -1 -1 0
2083 551 1 -1.1128 10.554584521545092 -9.874175593820711 -3.9973862378405123 -1 -1 0
1916 495 2 0.5564 9.186049241001928 -8.603411761018169 -3.6338363149933564 -1 -1 0
962 177 2 0.5564 10.277442372887261 -1.3711374985998752 -1.8464459540910547 -1 -1 0
483 17 2 0.5564 10.766277173071613 -7.381636620323379 -8.811387322952143 -1 -2 0
219 0 5 0 6.565121562068049 -0.2452860887240061 -13.267821545731884 -2 -1 0
944 171 2 0.5564 6.013488263811682 -1.1143397410900582 -8.652485868802856 -2 -1 0
945 171 2 0.5564 7.514831208276686 -1.231215582349065 -8.496899378391229 -2 -1 0
855 141 2 0.5564 9.006583548533683 -5.332165222235321 -7.532992734585023 -1 -1 0
826 132 1 -1.1128 5.803823130220444 -6.837429128957185 -0.6090989878503572 -1 -1 0
1017 195 2 0.5564 7.402846766982772 -5.336252327322241 -2.10715949438439 -1 -1 0
827 132 2 0.5564 5.9063785359886865 -6.914148159589504 -1.557691801010869 -1 -1 0
1915 495 1 -1.1128 8.251935068773982 -8.530593716919304 -3.4379776318827964 -1 -1 0
2373 647 2 0.5564 5.140033871873263 -9.483699112497826 -3.5487296828218806 -1 0 0
828 132 2 0.5564 5.806538719331112 -5.894775602621586 -0.44287956880277973 -1 -1 0
484 18 1 -1.1128 6.169188966609637 -4.538284398744633 -8.503520269211224 -1 -1 0
780 116 2 0.5564 10.58032857265455 -2.0349042701985436 -5.1750363312664005 0 -1 0
1573 381 1 -1.1128 9.533236512519727 -4.951038352861379 -5.783815256596449 -1 -1 0