ITEM: TIMESTEP
0
ITEM: NUMBER OF ATOMS
1665
ITEM: BOX BOUNDS pp pp ff
-1.2120000000000001e+01 1.2120000000000001e+01
-1.2120000000000001e+01 1.2120000000000001e+01
-2.0199999999999999e+01 2.0199999999999999e+01
ITEM: ATOMS id type xs ys zs
1 5 0 0 0.1
2 5 0.0833333 0.0833333 0.1
3 5 0.0833333 0 0.15
4 5 0 0.0833333 0.15
5 5 0.166667 0 0.1
6 5 0.25 0.0833333 0.1
7 5 0.25 0 0.15
8 5 0.166667 0.0833333 0.15
25 5 0 0.166667 0.1
26 5 0.0833333 0.25 0.1
27 5 0.0833333 0.166667 0.15
28 5 0 0.25 0.15
29 5 0.166667 0.166667 0.1
30 5 0.25 0.25 0.1
31 5 0.25 0.166667 0.15
32 5 0.166667 0.25 0.15
49 5 0 0.333333 0.1
50 5 0.0833333 0.416667 0.1
51 5 0.0833333 0.333333 0.15
52 5 0 0.416667 0.15
53 5 0.166667 0.333333 0.1
54 5 0.25 0.416667 0.1
55 5 0.25 0.333333 0.15
56 5 0.166667 0.416667 0.15
73 5 0 0 0.2
74 5 0.0833333 0.0833333 0.2
75 5 0.166667 0 0.2
76 5 0.25 0.0833333 0.2
85 5 0 0.166667 0.2
86 5 0.0833333 0.25 0.2
87 5 0.166667 0.166667 0.2
88 5 0.25 0.25 0.2
97 5 0 0.333333 0.2
98 5 0.0833333 0.416667 0.2
99 5 0.166667 0.333333 0.2
100 5 0.25 0.416667 0.2
9 5 0.333333 0 0.1
10 5 0.416667 0.0833333 0.1
11 5 0.416667 0 0.15
12 5 0.333333 0.0833333 0.15
13 5 0.5 0 0.1
14 5 0.583333 0.0833333 0.1
15 5 0.583333 0 0.15
16 5 0.5 0.0833333 0.15
17 5 0.666667 0 0.1
20 5 0.666667 0.0833333 0.15
33 5 0.333333 0.166667 0.1
34 5 0.416667 0.25 0.1
35 5 0.416667 0.166667 0.15
36 5 0.333333 0.25 0.15
37 5 0.5 0.166667 0.1
38 5 0.583333 0.25 0.1
39 5 0.583333 0.166667 0.15
40 5 0.5 0.25 0.15
41 5 0.666667 0.166667 0.1
44 5 0.666667 0.25 0.15
57 5 0.333333 0.333333 0.1
58 5 0.416667 0.416667 0.1
59 5 0.416667 0.333333 0.15
60 5 0.333333 0.416667 0.15
61 5 0.5 0.333333 0.1
62 5 0.583333 0.416667 0.1
63 5 0.583333 0.333333 0.15
64 5 0.5 0.416667 0.15
65 5 0.666667 0.333333 0.1
68 5 0.666667 0.416667 0.15
77 5 0.333333 0 0.2
78 5 0.416667 0.0833333 0.2
79 5 0.5 0 0.2
80 5 0.583333 0.0833333 0.2
81 5 0.666667 0 0.2
89 5 0.333333 0.166667 0.2
90 5 0.416667 0.25 0.2
91 5 0.5 0.166667 0.2
92 5 0.583333 0.25 0.2
93 5 0.666667 0.166667 0.2
101 5 0.333333 0.333333 0.2
102 5 0.416667 0.416667 0.2
103 5 0.5 0.333333 0.2
104 5 0.583333 0.416667 0.2
105 5 0.666667 0.333333 0.2
18 5 0.75 0.0833333 0.1
19 5 0.75 0 0.15
21 5 0.833333 0 0.1
22 5 0.916667 0.0833333 0.1
23 5 0.916667 0 0.15
24 5 0.833333 0.0833333 0.15
42 5 0.75 0.25 0.1
43 5 0.75 0.166667 0.15
45 5 0.833333 0.166667 0.1
46 5 0.916667 0.25 0.1
47 5 0.916667 0.166667 0.15
48 5 0.833333 0.25 0.15
66 5 0.75 0.416667 0.1
67 5 0.75 0.333333 0.15
69 5 0.833333 0.333333 0.1
70 5 0.916667 0.416667 0.1
71 5 0.916667 0.333333 0.15
72 5 0.833333 0.416667 0.15
82 5 0.75 0.0833333 0.2
83 5 0.833333 0 0.2
84 5 0.916667 0.0833333 0.2
94 5 0.75 0.25 0.2
95 5 0.833333 0.166667 0.2
96 5 0.916667 0.25 0.2
106 5 0.75 0.416667 0.2
107 5 0.833333 0.333333 0.2
108 5 0.916667 0.416667 0.2
433 1 0.0029745 0.0157761 0.300958
436 1 0.0808176 0.0674741 0.300936
437 2 0.114418 0.0873245 0.304551
438 2 0.0547548 0.0951429 0.294516
2394 4 0.262836 0.484512 0.37966
446 2 0.144972 0.00949853 0.31313
448 1 0.256987 0.0870399 0.291563
449 2 0.270622 0.0629403 0.308455
450 2 0.222417 0.100034 0.299951
452 2 0.25976 0.0305836 0.348189
454 1 0.167644 0.0685746 0.353865
455 2 0.183348 0.102067 0.362156
456 2 0.149011 0.0793036 0.333992
459 2 0.328083 0.03059 0.305245
1849 1 0.182485 0.496841 0.499837
508 1 0.0811332 0.251103 0.290433
509 2 0.0795575 0.21864 0.30389
510 2 0.0893013 0.280261 0.305642
511 1 0.0743586 0.153439 0.34869
512 2 0.110913 0.155679 0.35755
513 2 0.0646951 0.190833 0.343755
514 1 0.00522027 0.23752 0.344725
515 2 0.00134015 0.275142 0.337913
523 1 0.256658 0.175466 0.357062
524 2 0.274878 0.157944 0.33886
525 2 0.218489 0.166623 0.354105
526 1 0.170874 0.247627 0.340764
527 2 0.146955 0.275502 0.349463
528 2 0.182187 0.226862 0.359739
538 1 0.320606 0.255327 0.355017
539 2 0.321965 0.245273 0.332119
1645 1 0.322695 0.488386 0.402096
1634 2 0.157483 0.469101 0.400488
1633 1 0.182743 0.499451 0.400743
1629 2 0.0711046 0.473104 0.442251
1627 1 0.085377 0.496403 0.459356
1429 1 0.329132 0.484599 0.298603
1424 2 0.27923 0.486395 0.350304
1423 1 0.239764 0.487531 0.349888
578 2 0.0315648 0.326746 0.300039
580 1 0.081418 0.432607 0.29905
581 2 0.105405 0.408979 0.286671
582 2 0.0631701 0.408473 0.314275
583 1 0.078845 0.331272 0.359215
584 2 0.113515 0.322042 0.349318
585 2 0.0576232 0.346678 0.341501
1418 2 0.176689 0.478909 0.286658
1412 2 0.111534 0.486955 0.355171
1411 1 0.073933 0.487347 0.347938
592 1 0.246461 0.42578 0.3077
593 2 0.275984 0.399834 0.305409
594 2 0.227542 0.424419 0.28692
595 1 0.248129 0.322594 0.342864
596 2 0.280352 0.329041 0.356003
597 2 0.221512 0.348326 0.351107
598 1 0.166266 0.41137 0.35914
599 2 0.144119 0.399291 0.340912
600 2 0.189614 0.439319 0.349981
1033 1 0.324867 0.333908 0.491767
1025 2 0.270077 0.392569 0.495512
1023 2 0.154722 0.362894 0.49711
1022 2 0.190969 0.31217 0.499335
1014 2 0.0796935 0.439768 0.48668
1012 1 0.0743741 0.404406 0.496731
963 2 0.315005 0.193175 0.499365
961 1 0.323614 0.154851 0.496929
941 2 0.0529418 0.24308 0.495045
940 1 0.0914456 0.249749 0.491634
879 2 0.149234 0.0269457 0.498125
652 1 0.0763177 0.0693111 0.39772
653 2 0.106437 0.0753249 0.412612
654 2 0.0672197 0.105312 0.38966
870 2 0.0607779 0.0632475 0.493224
660 2 0.0263804 0.066367 0.454488
868 1 0.0928247 0.0862765 0.492374
667 1 0.256864 0.00271205 0.458608
669 2 0.263901 0.0213816 0.438161
670 1 0.162662 0.0691602 0.446049
671 2 0.194557 0.077575 0.459074
672 2 0.142766 0.103213 0.444862
675 2 0.312902 0.0158241 0.388429
819 2 0.317865 0.361554 0.401209
817 1 0.321575 0.322412 0.399006
816 2 0.164453 0.445275 0.458826
815 2 0.184097 0.393055 0.441986
814 1 0.151393 0.411652 0.449185
813 2 0.218224 0.32989 0.452557
812 2 0.275423 0.350156 0.443697
828 2 0.332059 0.443605 0.460606
826 1 0.33074 0.421654 0.440927
811 1 0.256376 0.319904 0.45376
807 2 0.142945 0.340288 0.387578
806 2 0.180531 0.335998 0.417394
805 1 0.176561 0.323679 0.39501
803 2 0.0244789 0.419881 0.437556
801 2 0.077953 0.3359 0.469013
800 2 0.0735539 0.325776 0.432131
799 1 0.0985493 0.338343 0.448852
724 1 0.0927696 0.242414 0.406398
725 2 0.0602896 0.228564 0.39579
726 2 0.0969757 0.278993 0.397836
727 1 0.0864502 0.15084 0.450181
728 2 0.0914773 0.175896 0.432118
729 2 0.072084 0.173206 0.467702
794 2 0.0089199 0.337339 0.418436
793 1 0.0100636 0.342764 0.394977
733 1 0.171151 0.155207 0.39374
734 2 0.193092 0.172299 0.410559
735 2 0.135773 0.172451 0.395678
736 1 0.260789 0.261984 0.400308
737 2 0.267317 0.223356 0.403282
738 2 0.221933 0.264705 0.396411
739 1 0.252945 0.161912 0.44092
740 2 0.255561 0.140426 0.460737
741 2 0.241504 0.197644 0.448309
742 1 0.15428 0.24331 0.445272
743 2 0.165863 0.236431 0.467544
744 2 0.179812 0.270234 0.437166
746 2 0.315098 0.192845 0.397191
2393 4 0.44395 0.473926 0.410236
460 1 0.416045 0.0685166 0.303812
461 2 0.447931 0.0880631 0.29621
462 2 0.386022 0.0933656 0.299993
465 2 0.39883 0.020696 0.360275
2380 3 0.52175 0.0495043 0.307747
2379 3 0.64765 0.060453 0.313548
2378 3 0.566789 0.0241724 0.406531
852 2 0.65104 0.444497 0.447251
470 2 0.517248 0.00564502 0.284008
471 2 0.486002 0.0100856 0.316345
472 1 0.591728 0.0968506 0.301598
473 2 0.581948 0.068924 0.317288
474 2 0.576355 0.0842754 0.28112
850 1 0.655226 0.406385 0.45292
2377 3 0.631665 0.395041 0.482905
478 1 0.486642 0.0875295 0.345191
479 2 0.489388 0.0647977 0.364494
480 2 0.52392 0.0976883 0.340297
490 1 0.660403 0.0975274 0.352655
491 2 0.641051 0.0652071 0.345549
1885 1 0.657145 0.486978 0.499883
1874 2 0.523792 0.478255 0.49945
1861 1 0.336828 0.490294 0.492558
1659 2 0.521488 0.496649 0.414284
1657 1 0.506615 0.492249 0.392495
1652 2 0.447901 0.492872 0.447809
1651 1 0.409154 0.485754 0.449435
1646 2 0.361785 0.48485 0.399498
532 1 0.415126 0.234804 0.303117
533 2 0.399939 0.267509 0.312775
534 2 0.43493 0.24763 0.284119
535 1 0.42185 0.180659 0.353681
536 2 0.425734 0.144552 0.362986
537 2 0.402435 0.174841 0.333347
540 2 0.357382 0.249419 0.362883
541 1 0.484287 0.163675 0.298737
542 2 0.501635 0.181194 0.317244
543 2 0.51402 0.15512 0.284014
553 1 0.659986 0.152046 0.299174
555 2 0.642318 0.185818 0.305371
1448 2 0.610221 0.491808 0.340519
1447 1 0.571978 0.490285 0.346352
1441 1 0.49852 0.485038 0.29649
1436 2 0.447732 0.492031 0.347994
1435 1 0.408921 0.485857 0.350313
1430 2 0.361621 0.498375 0.309235
1050 2 0.557961 0.431924 0.492336
1048 1 0.59555 0.427067 0.498984
1046 2 0.505497 0.351617 0.484409
1045 1 0.511654 0.322184 0.499766
604 1 0.408498 0.41675 0.291653
605 2 0.423241 0.385543 0.303165
606 2 0.418231 0.447708 0.305152
607 1 0.408554 0.334484 0.358338
608 2 0.411309 0.361482 0.341127
609 2 0.430108 0.304038 0.350565
616 1 0.58353 0.400535 0.29999
617 2 0.608426 0.425029 0.288934
618 2 0.558045 0.424377 0.311076
987 2 0.659567 0.185817 0.485029
966 2 0.415372 0.278563 0.491056
625 1 0.665692 0.341027 0.308488
627 2 0.653438 0.304469 0.303373
635 2 0.647385 0.442426 0.348744
906 2 0.569575 0.0651888 0.486302
903 2 0.507046 0.0213422 0.486127
892 1 0.4235 0.0740068 0.493249
842 2 0.649417 0.358963 0.394458
841 1 0.656997 0.320738 0.398288
840 2 0.525257 0.432832 0.442888
839 2 0.479381 0.391892 0.449458
838 1 0.495345 0.425308 0.457682
822 2 0.440299 0.400335 0.408788
821 2 0.385451 0.421333 0.396041
820 1 0.424278 0.428375 0.395153
837 2 0.573057 0.305448 0.442493
836 2 0.594252 0.350847 0.464865
835 1 0.582689 0.343743 0.442615
676 1 0.405036 0.0721626 0.399721
677 2 0.444101 0.066397 0.399695
678 2 0.40082 0.111399 0.400582
834 2 0.566353 0.443602 0.403054
833 2 0.598551 0.3904 0.406524
818 2 0.360516 0.315993 0.399781
832 1 0.585103 0.415996 0.390387
831 2 0.524471 0.314144 0.394884
688 1 0.583519 0.0993743 0.398972
689 2 0.581147 0.0720578 0.381922
690 2 0.585335 0.0786272 0.419102
830 2 0.469227 0.337736 0.405138
829 1 0.506326 0.348174 0.399977
694 1 0.492714 0.0700287 0.453296
695 2 0.514698 0.0957194 0.465534
696 2 0.492561 0.0842028 0.431182
827 2 0.337191 0.38476 0.448434
706 1 0.658762 0.0705384 0.453503
708 2 0.644438 0.106662 0.449293
745 1 0.347318 0.172455 0.403352
747 2 0.337636 0.134722 0.39947
748 1 0.407221 0.255424 0.407141
749 2 0.404752 0.263755 0.384029
750 2 0.437992 0.230841 0.408857
751 1 0.407067 0.179626 0.449747
752 2 0.432144 0.169044 0.466912
753 2 0.410753 0.151378 0.43334
780 2 0.659481 0.273767 0.437657
778 1 0.653214 0.247986 0.455205
766 1 0.505777 0.235667 0.44722
767 2 0.471833 0.252692 0.440722
768 2 0.522412 0.261589 0.462047
769 1 0.658766 0.153056 0.40213
771 2 0.645798 0.190178 0.404304
864 2 0.809911 0.437166 0.444947
863 2 0.863636 0.41067 0.455548
862 1 0.826427 0.40211 0.449503
2395 4 0.786418 0.333863 0.396299
861 2 0.891847 0.353575 0.447754
2392 4 0.972003 0.460781 0.439965
860 2 0.946896 0.327147 0.455617
859 1 0.911237 0.319227 0.446617
858 2 0.887171 0.420767 0.39258
857 2 0.948774 0.418489 0.398593
856 1 0.914044 0.410721 0.40886
855 2 0.828751 0.306323 0.410203
854 2 0.832653 0.349659 0.383321
853 1 0.838616 0.344058 0.4065
851 2 0.693692 0.39908 0.44984
481 1 0.674769 0.0139136 0.300614
849 2 0.767421 0.359687 0.446125
848 2 0.741568 0.309161 0.461763
484 1 0.740136 0.0705666 0.300009
485 2 0.779625 0.0706014 0.3
486 2 0.730202 0.108785 0.299991
847 1 0.740977 0.331144 0.442084
846 2 0.732935 0.389686 0.397279
489 2 0.773303 0.0138548 0.339525
492 2 0.698523 0.0873178 0.351806
493 1 0.839829 0.0126768 0.304545
494 2 0.830857 0.00941044 0.281555
845 2 0.767341 0.436284 0.411292
496 1 0.926627 0.095817 0.298628
497 2 0.922513 0.0637191 0.28505
498 2 0.900896 0.09051 0.316317
499 1 0.918906 0.00219036 0.359496
844 1 0.749723 0.424057 0.391397
501 2 0.894316 0.0218038 0.345172
1897 1 0.839359 0.48648 0.49615
1886 2 0.696585 0.488107 0.498927
516 2 0.993459 0.237292 0.367342
1837 1 0.989536 0.488659 0.497176
1688 2 0.894246 0.497714 0.436163
1687 1 0.915433 0.486158 0.454917
1676 2 0.726289 0.48294 0.441806
1473 2 0.886074 0.491501 0.346629
1471 1 0.925109 0.49247 0.343099
1461 2 0.740984 0.474963 0.339074
1459 1 0.755256 0.493314 0.358226
554 2 0.697671 0.162082 0.295452
556 1 0.736636 0.241425 0.298286
557 2 0.746057 0.261291 0.317967
558 2 0.767257 0.247252 0.28374
565 1 0.825044 0.152941 0.301067
566 2 0.864046 0.157218 0.298395
567 2 0.810879 0.189791 0.300542
568 1 0.926895 0.262184 0.30161
569 2 0.922739 0.229032 0.314239
570 2 0.900403 0.258829 0.284156
571 1 0.903711 0.169995 0.344588
572 2 0.933841 0.193957 0.349866
573 2 0.912401 0.136061 0.355526
577 1 0.9939 0.323903 0.306949
579 2 0.974512 0.349316 0.293037
1074 2 0.887843 0.425942 0.493349
1071 2 0.852916 0.334443 0.484644
1002 2 0.900155 0.277681 0.49944
1000 1 0.905466 0.238567 0.498784
998 2 0.859723 0.166394 0.488884
626 2 0.680866 0.354531 0.28817
631 1 0.747113 0.32968 0.359268
632 2 0.741865 0.36443 0.348464
633 2 0.761011 0.305876 0.342302
634 1 0.680128 0.422271 0.354142
636 2 0.672537 0.385324 0.347129
939 2 0.987042 0.157893 0.483084
918 2 0.74609 0.0942521 0.481948
640 1 0.926865 0.410044 0.293639
641 2 0.935019 0.423493 0.315371
642 2 0.888153 0.416439 0.290967
646 1 0.818202 0.413642 0.347175
647 2 0.847085 0.387572 0.351219
648 2 0.834657 0.448774 0.351596
843 2 0.693551 0.320252 0.407247
651 2 0.979096 0.0245306 0.4006
658 1 0.989922 0.0724831 0.446158
659 2 0.98366 0.11111 0.449339
700 1 0.742615 0.0895025 0.39223
701 2 0.772754 0.0640001 0.392696
702 2 0.734603 0.0965203 0.415045
704 2 0.748728 0.00853596 0.431359
707 2 0.696771 0.0727525 0.447217
712 1 0.902292 0.0761189 0.400758
713 2 0.937575 0.059035 0.397906
714 2 0.91008 0.11482 0.401338
716 2 0.944722 0.0025556 0.440587
717 2 0.898609 0.00404011 0.465844
804 2 0.980419 0.428642 0.463588
802 1 0.995084 0.40142 0.448852
795 2 0.981054 0.319932 0.386568
792 2 0.859913 0.245415 0.460602
791 2 0.816481 0.266677 0.436887
790 1 0.82357 0.237863 0.45252
786 2 0.911333 0.259907 0.418131
785 2 0.929274 0.254401 0.38239
784 1 0.909366 0.23564 0.399477
779 2 0.687255 0.22824 0.457158
774 2 0.740952 0.280893 0.401121
773 2 0.771872 0.227352 0.395824
772 1 0.737128 0.241724 0.403066
770 2 0.695407 0.156716 0.393574
869 2 0.0964323 0.100487 0.514374
872 2 0.115554 4.73955e-05 0.549251
873 2 0.0549474 0.0150599 0.548393
2396 4 0.117222 0.147125 0.58965
2381 3 0.271685 0.215002 0.518072
885 2 0.232062 0.0192676 0.538828
886 1 0.165063 0.0681857 0.553189
887 2 0.154138 0.0827948 0.532176
888 2 0.180793 0.0989637 0.564646
898 1 0.322113 0.0772304 0.555913
900 2 0.323055 0.11323 0.546193
2077 1 0.320275 0.492325 0.596668
2066 2 0.149909 0.475541 0.592395
1383 2 0.321432 0.362276 0.704663
2061 2 0.0799774 0.489826 0.631752
2059 1 0.0798861 0.487046 0.655386
1381 1 0.326378 0.329784 0.691529
1380 2 0.26874 0.420732 0.684446
1379 2 0.246222 0.410567 0.718862
1378 1 0.234984 0.418709 0.69668
2054 2 0.0318282 0.495727 0.601743
1377 2 0.165803 0.321339 0.717951
1376 2 0.164307 0.329713 0.680828
1375 1 0.169901 0.349006 0.701226
1374 2 0.0640797 0.399805 0.688231
1373 2 0.0888235 0.441828 0.711642
1372 1 0.0971478 0.408336 0.700127
938 2 0.0252886 0.175632 0.510731
1371 2 0.0259151 0.317172 0.706206
942 2 0.105643 0.257171 0.51329
943 1 0.0770755 0.151972 0.548635
944 2 0.111107 0.166197 0.540175
945 2 0.061794 0.181777 0.561184
947 2 0.0258104 0.251018 0.53842
955 1 0.236142 0.158599 0.551066
956 2 0.267095 0.148813 0.537576
957 2 0.246712 0.192557 0.561362
1856 2 0.277719 0.484459 0.546723
1855 1 0.239236 0.488253 0.551522
1844 2 0.0562003 0.487064 0.557002
1843 1 0.0936068 0.499694 0.557461
1839 2 0.010907 0.489545 0.517092
1309 1 0.32085 0.0101998 0.700386
1302 2 0.0528807 0.0761038 0.695348
1301 2 0.105355 0.103538 0.707263
1300 1 0.091795 0.0703105 0.697379
1013 2 0.0958992 0.405781 0.516577
1015 1 0.0809066 0.344258 0.556972
1016 2 0.115412 0.330814 0.548746
1017 2 0.0536727 0.324968 0.544308
1018 1 0.00875735 0.406651 0.544525
1020 2 0.0152297 0.417035 0.567052
1021 1 0.154263 0.324905 0.503569
1024 1 0.236399 0.409295 0.502747
1026 2 0.243474 0.448109 0.50175
1027 1 0.258092 0.326134 0.557174
1028 2 0.2257 0.348545 0.558856
1029 2 0.266238 0.325295 0.533996
1347 2 0.327149 0.198239 0.7013
1345 1 0.318818 0.159833 0.698981
1341 2 0.190681 0.148411 0.706835
1340 2 0.135808 0.170679 0.69493
1339 1 0.173536 0.180963 0.698229
1338 2 0.0572822 0.268794 0.701681
1337 2 0.112342 0.240247 0.706092
1083 2 0.00164262 0.0162374 0.616686
1249 1 0.318039 0.328409 0.599129
1248 2 0.186064 0.425995 0.664406
1247 2 0.149212 0.423125 0.634201
1336 1 0.0803647 0.240925 0.692197
1088 2 0.114432 0.000706009 0.655095
1089 2 0.0571238 0.0140951 0.642551
1091 2 0.0135187 0.0547436 0.653776
1093 1 0.173618 0.00192424 0.591341
1094 2 0.182443 0.0204434 0.611586
1096 1 0.248611 0.0701147 0.594513
1097 2 0.281394 0.0848648 0.604318
1098 2 0.21999 0.0949718 0.601148
1334 2 0.0312217 0.160304 0.697033
1101 2 0.272681 0.0205533 0.643915
1246 1 0.164717 0.400822 0.651398
1245 2 0.22774 0.355706 0.646034
1244 2 0.280609 0.324623 0.653116
1243 1 0.24162 0.319621 0.650854
1239 2 0.186555 0.31549 0.58917
1238 2 0.161217 0.353179 0.614894
1237 1 0.152174 0.331324 0.595921
1233 2 0.0692386 0.348343 0.664889
1232 2 0.104883 0.332539 0.635616
1231 1 0.0758511 0.319065 0.649493
1226 2 0.0223698 0.322655 0.612374
1154 2 0.024709 0.145996 0.599168
1156 1 0.0721184 0.25442 0.606433
1157 2 0.111286 0.253567 0.609404
1158 2 0.0665541 0.242029 0.584186
1159 1 0.0929268 0.174106 0.643625
1160 2 0.0634277 0.148962 0.6391
1161 2 0.093681 0.17696 0.667252
1165 1 0.16534 0.178164 0.593256
1166 2 0.172928 0.139796 0.589987
1167 2 0.161727 0.182083 0.616732
1168 1 0.261976 0.252475 0.606314
1169 2 0.26469 0.238684 0.584172
1170 2 0.223378 0.258851 0.609537
1188 2 0.305348 0.234008 0.649453
2398 4 0.664565 0.346218 0.653358
2397 4 0.433053 0.319065 0.508598
1395 2 0.636033 0.341228 0.696254
1393 1 0.665954 0.325109 0.708317
2085 2 0.445813 0.488349 0.654429
893 2 0.436258 0.108842 0.501367
894 2 0.390266 0.0671163 0.505359
895 1 0.402011 0.00347288 0.553469
896 2 0.435534 0.0236264 0.556723
2078 2 0.358176 0.483449 0.592685
899 2 0.354791 0.0595166 0.547915
901 1 0.492193 0.00861779 0.50671
904 1 0.580166 0.0755511 0.508264
905 2 0.600247 0.109231 0.505465
909 2 0.579983 0.0320181 0.551099
1382 2 0.352164 0.307926 0.703776
914 2 0.654333 0.0297593 0.500847
1868 2 0.44264 0.483212 0.544525
1867 1 0.409416 0.490578 0.556543
1863 2 0.336326 0.481188 0.51561
962 2 0.361345 0.151931 0.503694
964 1 0.401791 0.247845 0.503517
965 2 0.432782 0.223584 0.50544
967 1 0.425266 0.163039 0.557896
968 2 0.405182 0.196233 0.553481
969 2 0.419584 0.140715 0.538652
1310 2 0.354407 0.0143275 0.688146
979 1 0.572382 0.178512 0.550118
980 2 0.57709 0.149509 0.565946
981 2 0.600488 0.172023 0.533936
982 1 0.500918 0.261724 0.543373
983 2 0.492479 0.223596 0.539853
984 2 0.506606 0.264723 0.56675
985 1 0.652377 0.161041 0.502967
1356 2 0.581346 0.253659 0.680815
1355 2 0.578829 0.232591 0.716059
1354 1 0.589849 0.263801 0.703138
1353 2 0.515661 0.156457 0.684237
1352 2 0.483567 0.160844 0.716275
1351 1 0.500775 0.182758 0.699486
1034 2 0.341104 0.364059 0.503565
1035 2 0.333998 0.302035 0.504637
1275 2 0.658199 0.341473 0.618018
1346 2 0.353979 0.141903 0.699715
1039 1 0.410339 0.329316 0.541428
1040 2 0.395166 0.32275 0.562945
1041 2 0.444471 0.347919 0.545596
1274 2 0.659288 0.322556 0.582311
1272 2 0.482551 0.428117 0.635252
1271 2 0.526709 0.416625 0.660839
1047 2 0.482891 0.326157 0.515824
1270 1 0.490705 0.405215 0.653923
1049 2 0.596534 0.391047 0.508677
1266 2 0.556741 0.434532 0.597803
1051 1 0.569383 0.328298 0.546191
1052 2 0.590446 0.311203 0.563408
1053 2 0.590119 0.360481 0.540387
1265 2 0.613769 0.413057 0.60601
1264 1 0.579476 0.402359 0.596173
1263 2 0.488248 0.363326 0.600862
1262 2 0.522854 0.311606 0.604041
1261 1 0.488857 0.325037 0.595078
1257 2 0.437787 0.354778 0.656939
1256 2 0.386472 0.322707 0.647669
1066 1 0.665339 0.400734 0.548706
1068 2 0.637179 0.42811 0.546239
1255 1 0.425774 0.322475 0.645375
1251 2 0.339335 0.349118 0.583518
1250 2 0.342569 0.322455 0.617349
1105 1 0.34303 0.00523843 0.592931
1107 2 0.350579 0.00395778 0.616174
1108 1 0.409096 0.0697621 0.6026
1109 2 0.410767 0.103886 0.614481
1110 2 0.430109 0.0763021 0.582928
1120 1 0.577896 0.0682683 0.601163
1121 2 0.613751 0.0823326 0.606392
1122 2 0.558333 0.0993436 0.592448
1138 1 0.665615 0.0750563 0.658285
1140 2 0.639908 0.101314 0.64961
1317 2 0.487062 0.0276421 0.706243
1212 2 0.646083 0.252527 0.635185
1200 2 0.502401 0.253968 0.669146
1199 2 0.508686 0.257533 0.631925
1198 1 0.488872 0.238457 0.648925
1197 2 0.610853 0.182293 0.64629
1196 2 0.551998 0.16659 0.654562
1195 1 0.587164 0.15106 0.649145
1194 2 0.586945 0.273323 0.586817
1193 2 0.583159 0.218857 0.605013
1192 1 0.579884 0.257849 0.6082
1187 2 0.355828 0.268372 0.641596
1186 1 0.338844 0.247611 0.658984
1404 2 0.942756 0.401514 0.693172
1403 2 0.893968 0.420753 0.71352
1402 1 0.913264 0.427773 0.693283
1401 2 0.827981 0.357878 0.687871
1400 2 0.851006 0.318803 0.713633
1399 1 0.820968 0.323282 0.69849
1398 2 0.729008 0.440723 0.697291
1397 2 0.77924 0.403617 0.697718
1396 1 0.741721 0.40562 0.705009
2114 2 0.855227 0.493531 0.586337
1394 2 0.69801 0.333633 0.69546
2113 1 0.819506 0.4942 0.596428
2109 2 0.739963 0.471497 0.656751
2107 1 0.749675 0.498331 0.640374
2295 2 0.686451 0.482956 0.71135
2299 1 0.841712 0.487904 0.70397
2300 2 0.805115 0.499706 0.70936
916 1 0.740483 0.0703324 0.500497
917 2 0.763391 0.0853676 0.517557
921 2 0.733892 0.0266538 0.544986
2053 1 0.993834 0.485128 0.600627
1904 2 0.890381 0.49236 0.560225
927 2 0.813593 0.0245041 0.504226
1899 2 0.840759 0.498035 0.51879
933 2 0.926408 0.0232314 0.562077
934 1 0.825237 0.0694244 0.550678
935 2 0.862435 0.0767064 0.557321
936 2 0.812298 0.103818 0.542004
937 1 0.987623 0.166474 0.506208
1370 2 0.978031 0.339947 0.686406
1369 1 0.99604 0.342916 0.707416
946 1 0.996761 0.234272 0.550935
948 2 0.977416 0.264652 0.560649
1892 2 0.77252 0.480202 0.542884
1891 1 0.737161 0.490523 0.551424
1365 2 0.839063 0.165508 0.680974
1364 2 0.841535 0.175629 0.717921
1363 1 0.819351 0.158834 0.701109
1362 2 0.77889 0.248254 0.708529
1361 2 0.731552 0.251163 0.684147
1360 1 0.739519 0.250585 0.707351
986 2 0.688003 0.153121 0.512015
1299 2 0.978896 0.0227131 0.694685
1296 2 0.839314 0.438369 0.636148
1295 2 0.838402 0.387948 0.658254
1294 1 0.822243 0.423709 0.655618
991 1 0.736042 0.164167 0.545383
992 2 0.771572 0.149471 0.539983
993 2 0.742335 0.186353 0.564616
1293 2 0.893589 0.354891 0.653908
1292 2 0.930217 0.311479 0.638327
1291 1 0.926229 0.33363 0.657794
997 1 0.830366 0.151095 0.501801
1290 2 0.898739 0.392797 0.592686
999 2 0.809901 0.182454 0.509323
1001 2 0.944337 0.23371 0.501771
1003 1 0.906366 0.154581 0.551709
1004 2 0.942716 0.15227 0.542557
1005 2 0.90088 0.193105 0.55574
1006 1 0.82296 0.237671 0.549513
1007 2 0.862403 0.236048 0.550088
1008 2 0.814599 0.276236 0.550397
1289 2 0.922824 0.448036 0.602531
1288 1 0.928481 0.409139 0.604801
1019 2 0.976045 0.426277 0.538403
1287 2 0.831246 0.328336 0.580928
1286 2 0.84529 0.325948 0.617413
1285 1 0.823427 0.345761 0.601666
1278 2 0.738457 0.396704 0.586477
1277 2 0.771877 0.437997 0.606182
1276 1 0.739628 0.415293 0.607369
1273 1 0.682572 0.335981 0.59967
1063 1 0.753278 0.318871 0.553813
1064 2 0.778879 0.347148 0.547683
1065 2 0.717855 0.333928 0.548518
1067 2 0.697477 0.421098 0.55505
1069 1 0.84306 0.335875 0.507571
1070 2 0.80406 0.329691 0.507813
1072 1 0.914137 0.40186 0.503531
1073 2 0.948011 0.422144 0.503133
1075 1 0.903343 0.341768 0.552046
1076 2 0.909734 0.318169 0.53344
1077 2 0.936873 0.340094 0.564521
1081 1 0.990082 0.00878467 0.594477
1090 1 0.9907 0.0862984 0.657707
1092 2 0.995747 0.108969 0.638546
1335 2 0.975125 0.187172 0.700415
1333 1 0.99363 0.152472 0.702561
1332 2 0.928017 0.0532302 0.698699
1331 2 0.912565 0.110862 0.709769
1330 1 0.909391 0.0859173 0.691501
1329 2 0.811948 0.0239006 0.697994
1227 2 0.990381 0.35342 0.586009
1225 1 0.987202 0.32389 0.601623
1224 2 0.820092 0.278058 0.644729
1223 2 0.858865 0.232301 0.655183
1222 1 0.820998 0.239603 0.650088
1221 2 0.892396 0.187894 0.650116
1220 2 0.947906 0.159522 0.647852
1132 1 0.745469 0.0678518 0.599838
1133 2 0.768021 0.0859713 0.615965
1134 2 0.736494 0.0961197 0.584196
1219 1 0.909673 0.152531 0.65204
1218 2 0.926974 0.252267 0.618281
1137 2 0.73225 0.0269026 0.650579
1139 2 0.694473 0.0735989 0.642136
1217 2 0.919012 0.257615 0.581253
1216 1 0.903967 0.240081 0.600467
1215 2 0.815902 0.145773 0.589619
1144 1 0.909016 0.075589 0.592856
1145 2 0.945903 0.0697651 0.600558
1146 2 0.895052 0.104617 0.60656
1214 2 0.844419 0.196442 0.603301
1213 1 0.839702 0.157752 0.607106
1150 1 0.829377 0.0935325 0.642885
1151 2 0.835012 0.0545308 0.641361
1152 2 0.835596 0.101974 0.665728
1153 1 0.986986 0.157273 0.60098
1155 2 0.988257 0.196696 0.599855
1211 2 0.673824 0.253387 0.668755
1210 1 0.680143 0.244064 0.646046
1206 2 0.756001 0.280011 0.606091
1205 2 0.755523 0.225322 0.587996
1204 1 0.738433 0.244647 0.605935
109 5 0 0 0.8
110 5 0.0833333 0.0833333 0.8
111 5 0.0833333 0 0.85
112 5 0 0.0833333 0.85
113 5 0.166667 0 0.8
114 5 0.25 0.0833333 0.8
115 5 0.25 0 0.85
116 5 0.166667 0.0833333 0.85
133 5 0 0.166667 0.8
134 5 0.0833333 0.25 0.8
135 5 0.0833333 0.166667 0.85
136 5 0 0.25 0.85
137 5 0.166667 0.166667 0.8
138 5 0.25 0.25 0.8
139 5 0.25 0.166667 0.85
140 5 0.166667 0.25 0.85
157 5 0 0.333333 0.8
158 5 0.0833333 0.416667 0.8
159 5 0.0833333 0.333333 0.85
160 5 0 0.416667 0.85
161 5 0.166667 0.333333 0.8
162 5 0.25 0.416667 0.8
163 5 0.25 0.333333 0.85
164 5 0.166667 0.416667 0.85
181 5 0 0 0.9
182 5 0.0833333 0.0833333 0.9
183 5 0.166667 0 0.9
184 5 0.25 0.0833333 0.9
193 5 0 0.166667 0.9
194 5 0.0833333 0.25 0.9
195 5 0.166667 0.166667 0.9
196 5 0.25 0.25 0.9
205 5 0 0.333333 0.9
206 5 0.0833333 0.416667 0.9
207 5 0.166667 0.333333 0.9
208 5 0.25 0.416667 0.9
117 5 0.333333 0 0.8
118 5 0.416667 0.0833333 0.8
119 5 0.416667 0 0.85
120 5 0.333333 0.0833333 0.85
121 5 0.5 0 0.8
122 5 0.583333 0.0833333 0.8
123 5 0.583333 0 0.85
124 5 0.5 0.0833333 0.85
125 5 0.666667 0 0.8
128 5 0.666667 0.0833333 0.85
141 5 0.333333 0.166667 0.8
142 5 0.416667 0.25 0.8
143 5 0.416667 0.166667 0.85
144 5 0.333333 0.25 0.85
145 5 0.5 0.166667 0.8
146 5 0.583333 0.25 0.8
147 5 0.583333 0.166667 0.85
148 5 0.5 0.25 0.85
149 5 0.666667 0.166667 0.8
152 5 0.666667 0.25 0.85
165 5 0.333333 0.333333 0.8
166 5 0.416667 0.416667 0.8
167 5 0.416667 0.333333 0.85
168 5 0.333333 0.416667 0.85
169 5 0.5 0.333333 0.8
170 5 0.583333 0.416667 0.8
171 5 0.583333 0.333333 0.85
172 5 0.5 0.416667 0.85
173 5 0.666667 0.333333 0.8
176 5 0.666667 0.416667 0.85
185 5 0.333333 0 0.9
186 5 0.416667 0.0833333 0.9
187 5 0.5 0 0.9
188 5 0.583333 0.0833333 0.9
189 5 0.666667 0 0.9
197 5 0.333333 0.166667 0.9
198 5 0.416667 0.25 0.9
199 5 0.5 0.166667 0.9
200 5 0.583333 0.25 0.9
201 5 0.666667 0.166667 0.9
209 5 0.333333 0.333333 0.9
210 5 0.416667 0.416667 0.9
211 5 0.5 0.333333 0.9
212 5 0.583333 0.416667 0.9
213 5 0.666667 0.333333 0.9
126 5 0.75 0.0833333 0.8
127 5 0.75 0 0.85
129 5 0.833333 0 0.8
130 5 0.916667 0.0833333 0.8
131 5 0.916667 0 0.85
132 5 0.833333 0.0833333 0.85
150 5 0.75 0.25 0.8
151 5 0.75 0.166667 0.85
153 5 0.833333 0.166667 0.8
154 5 0.916667 0.25 0.8
155 5 0.916667 0.166667 0.85
156 5 0.833333 0.25 0.85
174 5 0.75 0.416667 0.8
175 5 0.75 0.333333 0.85
177 5 0.833333 0.333333 0.8
178 5 0.916667 0.416667 0.8
179 5 0.916667 0.333333 0.85
180 5 0.833333 0.416667 0.85
190 5 0.75 0.0833333 0.9
191 5 0.833333 0 0.9
192 5 0.916667 0.0833333 0.9
202 5 0.75 0.25 0.9
203 5 0.833333 0.166667 0.9
204 5 0.916667 0.25 0.9
214 5 0.75 0.416667 0.9
215 5 0.833333 0.333333 0.9
216 5 0.916667 0.416667 0.9
217 5 0 0.5 0.1
218 5 0.0833333 0.583333 0.1
219 5 0.0833333 0.5 0.15
220 5 0 0.583333 0.15
221 5 0.166667 0.5 0.1
222 5 0.25 0.583333 0.1
223 5 0.25 0.5 0.15
224 5 0.166667 0.583333 0.15
241 5 0 0.666667 0.1
242 5 0.0833333 0.75 0.1
243 5 0.0833333 0.666667 0.15
244 5 0 0.75 0.15
245 5 0.166667 0.666667 0.1
246 5 0.25 0.75 0.1
247 5 0.25 0.666667 0.15
248 5 0.166667 0.75 0.15
265 5 0 0.833333 0.1
266 5 0.0833333 0.916667 0.1
267 5 0.0833333 0.833333 0.15
268 5 0 0.916667 0.15
269 5 0.166667 0.833333 0.1
270 5 0.25 0.916667 0.1
271 5 0.25 0.833333 0.15
272 5 0.166667 0.916667 0.15
289 5 0 0.5 0.2
290 5 0.0833333 0.583333 0.2
291 5 0.166667 0.5 0.2
292 5 0.25 0.583333 0.2
301 5 0 0.666667 0.2
302 5 0.0833333 0.75 0.2
303 5 0.166667 0.666667 0.2
304 5 0.25 0.75 0.2
313 5 0 0.833333 0.2
314 5 0.0833333 0.916667 0.2
315 5 0.166667 0.833333 0.2
316 5 0.25 0.916667 0.2
225 5 0.333333 0.5 0.1
226 5 0.416667 0.583333 0.1
227 5 0.416667 0.5 0.15
228 5 0.333333 0.583333 0.15
229 5 0.5 0.5 0.1
230 5 0.583333 0.583333 0.1
231 5 0.583333 0.5 0.15
232 5 0.5 0.583333 0.15
233 5 0.666667 0.5 0.1
236 5 0.666667 0.583333 0.15
249 5 0.333333 0.666667 0.1
250 5 0.416667 0.75 0.1
251 5 0.416667 0.666667 0.15
252 5 0.333333 0.75 0.15
253 5 0.5 0.666667 0.1
254 5 0.583333 0.75 0.1
255 5 0.583333 0.666667 0.15
256 5 0.5 0.75 0.15
257 5 0.666667 0.666667 0.1
260 5 0.666667 0.75 0.15
273 5 0.333333 0.833333 0.1
274 5 0.416667 0.916667 0.1
275 5 0.416667 0.833333 0.15
276 5 0.333333 0.916667 0.15
277 5 0.5 0.833333 0.1
278 5 0.583333 0.916667 0.1
279 5 0.583333 0.833333 0.15
280 5 0.5 0.916667 0.15
281 5 0.666667 0.833333 0.1
284 5 0.666667 0.916667 0.15
293 5 0.333333 0.5 0.2
294 5 0.416667 0.583333 0.2
295 5 0.5 0.5 0.2
296 5 0.583333 0.583333 0.2
297 5 0.666667 0.5 0.2
305 5 0.333333 0.666667 0.2
306 5 0.416667 0.75 0.2
307 5 0.5 0.666667 0.2
308 5 0.583333 0.75 0.2
309 5 0.666667 0.666667 0.2
317 5 0.333333 0.833333 0.2
318 5 0.416667 0.916667 0.2
319 5 0.5 0.833333 0.2
320 5 0.583333 0.916667 0.2
321 5 0.666667 0.833333 0.2
234 5 0.75 0.583333 0.1
235 5 0.75 0.5 0.15
237 5 0.833333 0.5 0.1
238 5 0.916667 0.583333 0.1
239 5 0.916667 0.5 0.15
240 5 0.833333 0.583333 0.15
258 5 0.75 0.75 0.1
259 5 0.75 0.666667 0.15
261 5 0.833333 0.666667 0.1
262 5 0.916667 0.75 0.1
263 5 0.916667 0.666667 0.15