LAMMPS data file via write_data, version 27 Jun 2024, timestep = 30000, units = real

3059 atoms
9 atom types
2072 bonds
7 bond types
1169 angles
8 angle types
210 dihedrals
4 dihedral types

-32.70314871833665 32.70314871833665 xlo xhi
-11.09811726584499 11.09811726584499 ylo yhi
-11.09811726584499 11.09811726584499 zlo zhi

Masses

1 15.9994
2 12.011
3 1.008
4 1.008
5 12.011
6 15.9994
7 15.9994
8 15.9994
9 1.008

Pair Coeffs # lj/cut/coul/long

1 0.2526 2.8492
2 0.0663 3.5812
3 0.0283 2.3734
4 0 0
5 0.245 2.8114
6 0.1195 3.1
7 0.1195 3.1
8 0.155 3.165
9 0 0

Bond Coeffs # harmonic

1 1109.29 1.12
2 399.792 1.43
3 299.844 1.52
4 400.034 1.53
5 310.707 1.41
6 179.254 0.971
7 529.581 1.012

Angle Coeffs # harmonic

1 47.694 109.5
2 55.1271 109.5
3 47.635 109.6
4 55.1139 111
5 54.9931 110.3
6 180.46 109
7 30.1731 110
8 37.95 113.24

Dihedral Coeffs # harmonic

1 0.3011 1 3
2 1.4149 1 3
3 0.239 -1 3
4 0 1 1

Atoms # full

366 122 9 0.41 -27.86103019343153 -10.057937166105637 -9.43652618037666 0 0 0
364 122 8 -0.82 -28.0181273836299 -9.430726107723508 -8.637192484118525 0 0 0
365 122 9 0.41 -29.05248315670759 -9.321716955634537 -8.612186358557375 0 0 0
2992 998 8 -0.82 -26.59366569840791 -10.237821035249041 -5.989928587256257 1 0 0
460 154 8 -0.82 -30.05287100429296 -7.974742974140317 -4.28988736806826 0 0 1
256 86 8 -0.82 -25.67394861970432 -10.537192707746524 10.508829421198165 0 0 -1
2994 998 9 0.41 -26.89998993138167 -9.786590124136447 -6.8393734343880235 1 0 0
462 154 9 0.41 -30.84144150344786 -8.47477997202608 -4.745221484110932 0 0 1
258 86 9 0.41 -25.62717322220244 10.889161005193259 -11.01985729627922 0 -1 0
257 86 9 0.41 -25.39378789248064 -9.764107882619706 -11.097441693359153 0 0 0
461 154 9 0.41 -30.419864012438612 -7.31947469816831 -3.619862578306342 0 0 1
381 127 9 0.41 -27.14677460919846 -4.340611035230127 -5.146977328918742 0 1 0
1247 416 9 0.41 -24.57838016917842 -8.298866094332148 -4.59333872661156 0 1 0
2934 978 9 0.41 -28.620666376949572 -7.396052613988834 -5.420544168589308 1 0 0
2933 978 9 0.41 -28.35849952186888 -8.151423750742394 -6.989213246842045 1 0 0
2932 978 8 -0.82 -28.06553327214441 -7.467208886013667 -6.305853783215909 1 0 0
3123 1041 9 0.41 -24.42574032899696 -6.703918804698492 -5.799928600659071 1 0 0
2680 894 8 -0.82 -30.845805266878656 -5.02059399091493 -5.543237479947243 1 1 0
3121 1041 8 -0.82 -23.858645899557352 -7.550269187191784 -5.704964520380944 1 0 0
183 61 9 0.41 -29.364347632627265 -2.3343808077083867 10.776705267749247 0 0 -1
2682 894 9 0.41 -29.86354122627098 -4.8451748787704645 -5.409565623904113 1 1 0
636 212 9 0.41 -30.134861057711507 10.214354856736591 8.911881971418566 0 -1 0
635 212 9 0.41 -29.322070176557247 10.989136712956032 10.271536389685139 0 -1 0
336 112 9 0.41 -27.32615468217415 -10.155942824354785 10.484532191686036 0 1 -1
2681 894 9 0.41 -31.44217713636779 -4.173138024123403 -5.519517955737087 1 1 0
506 169 9 0.41 -26.250888211094175 -8.664602407572644 -9.119249277911257 0 1 0
290 97 9 0.41 -26.044279800429905 -4.008976523277941 -10.4288992547013 0 0 0
532 178 8 -0.82 -18.291757432390344 8.13379316815373 5.463716062820442 0 0 0
321 107 9 0.41 -26.61678022674496 9.572584523273115 -8.147417213374927 0 0 0
513 171 9 0.41 -32.160212183677515 3.430623123144123 -3.6490294259803564 0 -1 0
1437 479 9 0.41 -18.023549643058946 2.1631429856821143 -4.306063435122098 0 0 1
608 203 9 0.41 -24.21511984072493 -4.1878150085286965 -5.160185691868697 0 0 0
61 21 8 -0.82 -32.5706461932885 -5.16039656751561 10.590561809276927 0 0 -1
2954 985 9 0.41 -32.536309912777014 -6.240338955947279 -3.7973374831561433 1 0 0
418 140 8 -0.82 -30.662541577165733 -9.437159982637915 -8.540512962486812 0 1 0
3038 1013 9 0.41 -31.863303650610792 -8.102137364254375 6.948060135367033 1 0 -1
2146 716 8 -0.82 -23.050267123405632 3.759387229221346 3.1526993950631574 0 -1 -1
334 112 8 -0.82 -28.335148157357985 -9.9392668290158 10.621163062568865 0 1 -1
3122 1041 9 0.41 -23.27437954120055 -7.386588728486212 -6.511180814396758 1 0 0
505 169 8 -0.82 -25.343581263083024 -8.834068782891496 -9.546931356865953 0 1 0
507 169 9 0.41 -24.912280015360178 -7.868158818738964 -9.721013035546106 0 1 0
297 99 9 0.41 -24.974378410132232 -5.745235113027482 -9.861194865996191 0 0 0
2906 969 9 0.41 -18.9863887851822 -10.346348561956892 -8.987273161540351 1 1 0
2905 969 8 -0.82 -19.443878858974195 -9.457566177043178 -8.629325395200299 1 1 0
710 237 9 0.41 -20.58239811203434 -5.324955110919982 -5.842771698363866 0 1 0
709 237 8 -0.82 -20.202980931879104 -5.619711839539262 -4.935627454317058 0 1 0
2907 969 9 0.41 -20.042929916588285 -9.166863772877827 -9.415237551840713 1 1 0
162 54 9 0.41 -17.133885177597282 -8.98770381657154 -6.1159130551733565 0 1 1
278 93 9 0.41 -18.35570645582414 -7.702160334758488 -7.572220267871435 0 1 0
81 27 9 0.41 -16.84471500912054 -10.983510331589269 -9.314687693972132 0 1 0
486 162 9 0.41 -21.0058085598223 -10.25442536245532 -5.517374848883655 0 0 0
295 99 8 -0.82 -24.231688858339115 -6.496112177495453 -9.825712516924698 0 0 0
79 27 8 -0.82 -17.77076562749956 10.85457927127566 -9.619110752365165 0 0 0
1186 396 8 -0.82 -21.494321325607412 -5.324640207353756 -7.376486577625525 0 0 1
296 99 9 0.41 -23.408118916303756 -5.9550611788153285 -9.54079946581423 0 0 0
80 27 9 0.41 -17.510952418339194 9.937683925767711 -10.07989027045503 0 0 0
310 104 8 -0.82 -19.733572718197276 11.00439700245456 -6.301308510299625 0 0 0
2688 896 9 0.41 -31.997107177461825 -0.5056637484694644 -2.0177866664767308 1 0 0
3114 1038 9 0.41 -32.11833969067063 -6.371491116116555 5.620076135426654 1 0 -1
658 220 8 -0.82 -21.755909814655276 -4.320097229646214 -9.92032799707943 0 0 1
312 104 9 0.41 -19.837923397703264 -10.693832991271249 -7.199402051653246 0 1 0
424 142 8 -0.82 -23.031948120131965 -10.322529145995778 -9.60782181282182 0 1 1
279 93 9 0.41 -17.717221019263135 -6.630934621462082 -6.5196529312802305 0 1 0
277 93 8 -0.82 -18.203732742368437 -6.695924943891489 -7.412463959707047 0 1 0
13 5 8 -0.82 -17.443431232135445 -3.578310229220495 -6.873946274460783 0 0 0
660 220 9 0.41 -22.366824451029927 -3.5804075211121997 -10.25254571143053 0 0 1
425 142 9 0.41 -23.74704720929076 -9.637382178189283 -9.312732872283123 0 1 1
416 139 9 0.41 -19.030759414109596 -7.053958701688374 -4.941679394824109 0 1 1
1003 335 8 -0.82 -17.377583345892717 -9.159243638292644 9.981491612345707 0 1 -1
659 220 9 0.41 -21.727137208369122 -5.020867956532429 -10.675457700904012 0 0 1
555 185 9 0.41 -21.851721183947056 -9.586832233226607 -10.558981851462384 0 0 0
489 163 9 0.41 -20.51806290237713 -8.267243058431388 -7.671982720744087 0 0 0
417 139 9 0.41 -19.442780134995626 -8.612895958975198 -4.564727359981919 0 1 1
415 139 8 -0.82 -18.633878923905037 -7.980221503393854 -4.741275752253169 0 1 1
2147 716 9 0.41 -23.272276081625147 4.7779408392104195 3.0953015611837653 0 -1 -1
186 62 9 0.41 -17.9353837298654 -6.147187824728454 10.54948365505389 0 0 -1
1004 335 9 0.41 -18.31049249109716 -9.587336856563052 10.13145522355019 0 1 -1
553 185 8 -0.82 -20.91538700242789 -9.164005907460092 -10.8014197292858 0 0 0
128 43 9 0.41 -17.76354266701435 -6.675673240430415 -8.878280612526 0 0 0
1005 335 9 0.41 -16.77863530019476 -9.971583875469692 10.150243011356636 0 1 -1
127 43 8 -0.82 -17.15224203025425 -6.820152041551347 -9.726271180630345 0 0 0
1827 609 9 0.41 -17.036943259214546 4.13040979559284 5.937707983826407 0 0 0
129 43 9 0.41 -17.366925849012503 -7.781256416451938 -10.137544236350726 0 0 0
399 133 9 0.41 -31.112267925764442 -1.868242646670847 -8.38522073555114 0 0 1
291 97 9 0.41 -26.1134693048931 -4.041793553981653 -8.74876932120696 0 0 0
208 70 8 -0.82 -27.820512987313933 0.5497473905878039 -4.1156072294207595 0 -1 0
268 90 8 -0.82 -24.04361429076181 2.0467588004788215 -3.085002168785735 0 0 1
270 90 9 0.41 -24.80395345382378 2.4752944755446755 -3.669321540348088 0 0 1
269 90 9 0.41 -24.000334904018203 2.4968618678320276 -2.1737276724712267 0 0 1
380 127 9 0.41 -27.403095463791615 -5.749234501984749 -6.093348959625844 0 1 0
379 127 8 -0.82 -27.678248725469853 -4.7559756836614735 -5.928649192213927 0 1 0
2949 983 9 0.41 -29.16671397378607 -2.021767570950086 -6.1415864423437645 1 0 0
585 195 9 0.41 -27.542772824187793 -0.3242949166843587 -9.69275168599614 0 -1 0
685 229 8 -0.82 -27.892143622350268 2.5577503667272463 -8.351462408198687 0 -1 0
687 229 9 0.41 -27.804653268370117 3.371500897281699 -7.751946079450032 0 -1 0
604 202 8 -0.82 -26.034378879445132 2.801849975985636 -5.021667498934871 0 0 0
606 202 9 0.41 -25.811650517175792 2.1749056304970384 -5.814865419246737 0 0 0
605 202 9 0.41 -26.650627836962432 3.5063260188068703 -5.428931495841893 0 0 0
2758 920 8 -0.82 -25.741242838562 1.1553388550400623 -7.10709405735992 1 0 0
2760 920 9 0.41 -24.74942306249426 1.3919777402510576 -6.875536146505566 1 0 0
2759 920 9 0.41 -25.734797657108185 0.4394444997194391 -7.842606952927762 1 0 0
550 184 8 -0.82 -24.422840348708828 3.565866502228273 -0.4251679208763548 0 -1 0
583 195 8 -0.82 -28.185774098491642 -0.6330938864502329 -8.927210648653181 0 -1 0
584 195 9 0.41 -29.122958218230647 -0.28344376629882184 -9.173209287109131 0 -1 0
591 197 9 0.41 -31.023095075245042 -4.79618742552294 -2.7047265423808984 0 0 0
552 184 9 0.41 -24.068372341954525 4.488090480487875 -0.6883119150857802 0 -1 0
181 61 8 -0.82 -28.83443979852497 -1.595250861169701 10.345474607930424 0 0 -1
2947 983 8 -0.82 -28.800668706132733 -1.0965563050456204 -6.296863056570783 1 0 0
182 61 9 0.41 -27.90238406370003 -1.9380660254952176 10.071466881136097 0 0 -1
2855 952 9 0.41 -31.436459057300688 0.3255162416629229 -7.630502493515934 1 0 0
2854 952 8 -0.82 -31.025802252814703 0.2407029068127322 -8.53949677231441 1 0 0
210 70 9 0.41 -27.01883388213024 0.959537798249757 -4.568834237088073 0 -1 0
2856 952 9 0.41 -30.889073737508227 1.1722375822183437 -8.956000013383987 1 0 0
2948 983 9 0.41 -28.473951292222992 -0.9762907318930285 -7.280566856877991 1 0 0
209 70 9 0.41 -28.30372020716807 0.06837155085218605 -4.88941857455157 0 -1 0
204 68 9 0.41 -31.41264791894531 -0.45039792502771014 -5.038245117245811 0 0 0
537 179 9 0.41 -29.4276467575138 2.6781138071443635 -8.901581920551756 0 0 0
813 271 9 0.41 -27.44882265683478 -3.8475745127794694 -7.249397128958138 0 0 0
811 271 8 -0.82 -27.300628663586505 -3.1098621497980172 -7.993009050459879 0 0 0
812 271 9 0.41 -28.128881821119222 -2.5296362806296564 -8.183561483579572 0 0 0
397 133 8 -0.82 -31.547337923043933 -2.8139689196105557 -8.297616775528576 0 0 1
655 219 8 -0.82 -27.548621001512473 4.678363199248068 -6.274258142667023 0 0 0
458 153 9 0.41 -28.469947353609307 2.3489856996754668 -3.305755108388934 0 0 0
202 68 8 -0.82 -31.67969299934243 0.5061756668836601 -5.315696765710046 0 0 0
3251 1051 4 0.211 -16.753213616623157 -1.9758070044466542 -7.156544886410101 0 0 0
686 229 9 0.41 -27.01861179868723 2.068625936410495 -8.26739219249178 0 -1 0
2372 791 9 0.41 -31.796559528240785 -2.645080465122822 -6.761792433469988 1 0 0
2555 852 9 0.41 -23.20853064756905 4.396466607942356 6.498757091107471 1 0 0
289 97 8 -0.82 -25.776807200444146 -4.54273861510354 -9.60265506856807 0 0 0
711 237 9 0.41 -20.2348131236024 -4.802451210324551 -4.28901707775884 0 1 0
1188 396 9 0.41 -22.13707152978574 -4.677623622788572 -6.929242642387271 0 0 1
1187 396 9 0.41 -21.44211718083757 -5.179426726766481 -8.436510842949362 0 0 1
2953 985 8 -0.82 -32.25370272963079 -6.156671001505075 -2.8196132860252163 1 0 0
15 5 9 0.41 -17.83221127003634 -4.4428126345201715 -7.319408208278645 0 0 0
3041 1014 9 0.41 -25.42829015626873 0.7914149728166198 10.852349175882164 1 0 -1
706 236 8 -0.82 -26.648610850991425 2.8031627819627634 11.06862862080478 0 0 0
707 236 9 0.41 -26.682591545719234 3.83408979055981 10.918653652012146 0 0 0
2939 980 9 0.41 -25.19853118258393 -2.5808409074951157 -8.378457641799232 1 1 1
3040 1014 8 -0.82 -25.568128763457462 0.05191786495469586 -10.65674033674332 1 0 0
3042 1014 9 0.41 -24.615447264883397 -0.28425098114376723 -10.466792633418917 1 0 0
1176 392 9 0.41 -19.161581419598 -2.796648675482052 -6.493781351903109 0 0 1
1175 392 9 0.41 -20.49649917445575 -1.9217525499289927 -6.974967147769531 0 0 1
1174 392 8 -0.82 -20.07531043610336 -2.493064390309529 -6.229703627689987 0 0 1
2938 980 8 -0.82 -24.170648284154225 -2.548658651062679 -8.380271133791963 1 1 1
2940 980 9 0.41 -23.90355937780965 -2.5309869429193608 -9.376517532257454 1 1 1
2462 821 9 0.41 -18.7050455716725 -0.16873726155254687 -10.316438957097347 1 1 0
2461 821 8 -0.82 -19.673129616680328 -0.4790807077477641 -10.49418560629692 1 1 0
2463 821 9 0.41 -20.17323869989341 -0.5836870483066665 -9.590047593954528 1 1 0
558 186 9 0.41 -21.9425824608209 3.667668929185602 -9.696586473575524 0 0 1
671 224 9 0.41 -22.085736507478835 -1.0892151258708278 -8.381511868738444 0 0 1
228 76 9 0.41 -23.26740839119663 3.0086794332307267 -5.782008070433146 0 -1 0
672 224 9 0.41 -21.482122311537488 0.3049321190636505 -8.72251896781851 0 0 1
670 224 8 -0.82 -21.168854877742724 -0.6403502482766541 -8.399308938087684 0 0 1
890 297 9 0.41 -23.007122923398864 1.6670500689458407 -7.658871661004988 0 0 0
891 297 9 0.41 -23.16141015079777 2.251337428355578 -9.176911597560801 0 0 0
889 297 8 -0.82 -22.88625334872978 1.400552199946988 -8.6791283448423 0 0 0
226 76 8 -0.82 -23.27059908937965 2.035529914825929 -6.1223813092181 0 -1 0
292 98 8 -0.82 -18.764306291412034 1.8861615302151797 -7.974689230877435 0 -1 0
293 98 9 0.41 -18.40743418200367 0.936608576462957 -7.977872879424341 0 -1 0
735 245 9 0.41 -31.630212976479303 4.151943651073456 3.9644675493290187 0 0 0
294 98 9 0.41 -18.9864275640813 2.107331483626462 -6.9721827842348825 0 -1 0
251 84 9 0.41 -19.402261259322948 0.5198910506322747 1.0666227747831822 0 0 0
2979 993 9 0.41 -17.98122067780386 -2.4704446270702416 10.040508031613754 1 0 -1
3145 1049 8 -0.82 -22.939728578566324 -2.9992974154771375 -6.1460159573578474 1 0 0
3146 1049 9 0.41 -23.296753484917794 -2.642242973943169 -7.069450000062212 1 0 0
227 76 9 0.41 -23.066933569354703 1.5377206174248403 -5.241072230274788 0 -1 0
996 332 9 0.41 -19.62672929167178 1.0788754634758764 -5.073835176842344 0 0 0
994 332 8 -0.82 -19.655333571231118 2.058019694045697 -5.465468257337587 0 0 0
995 332 9 0.41 -20.04083530000917 2.7026909712312364 -4.733050036779904 0 0 0
2913 971 9 0.41 -30.779562685575932 -8.550072332829641 -10.830473449087986 1 1 0
2351 784 9 0.41 -21.642792955018336 8.127004980482653 5.639021000132441 1 -1 0
109 37 8 -0.82 -30.005108915208343 -10.812187026349637 -6.11916361678444 0 0 0
110 37 9 0.41 -29.61508088405354 -10.337560762677954 -6.922236452864395 0 0 0
2993 998 9 0.41 -26.219673338333738 -9.497640838269302 -5.383187929004251 1 0 0
516 172 9 0.41 -30.72832884869164 8.658794828557923 10.356189948347705 0 0 0
634 212 8 -0.82 -29.751293165728725 10.130276281827697 9.843049729887284 0 -1 0
600 200 9 0.41 -31.215350569649157 10.036119800198271 -5.932083926463495 0 0 0
191 64 9 0.41 -22.271572746269328 8.726038278514789 10.313586480823044 0 0 -1
111 37 9 0.41 -30.70406362562446 -10.143317599471798 -5.6976791008735 0 0 0
656 219 9 0.41 -28.47906187658412 4.307630658733256 -5.99254725018815 0 0 0
657 219 9 0.41 -27.598866286733283 5.354110760857225 -7.043537179559725 0 0 0
396 132 9 0.41 -26.683303035514978 8.750069874929295 -9.952578254027586 0 0 0
394 132 8 -0.82 -26.077257955179984 9.563504142199442 -9.920355339551366 0 0 0
395 132 9 0.41 -25.097081880773832 9.290910275068399 -9.59559446081343 0 0 0
154 52 8 -0.82 -17.281001797264068 10.646764757010232 -3.1806748275127292 0 -1 -1
3115 1039 8 -0.82 -32.2805795315215 5.285622992926687 -4.108893122108505 1 0 1
3117 1039 9 0.41 -31.316272621244774 5.424728845970435 -3.754708722755775 1 0 1
101 34 9 0.41 -30.268543415413724 9.54864895038407 -9.117603774686422 0 0 1
100 34 8 -0.82 -30.731285823612463 8.627142497211828 -8.966853062204823 0 0 1
102 34 9 0.41 -31.19469206579013 8.489447493718139 -9.88687927379449 0 0 1
90 30 9 0.41 -29.037841290704304 10.411876200698938 -4.022020668162493 0 0 0
218 73 9 0.41 -29.704521438843884 7.363215375318191 -8.152128708893647 0 0 1
238 80 8 -0.82 -28.578128396007955 7.894562389577658 -5.794956620051373 0 0 0
239 80 9 0.41 -28.997814193449173 8.481745895420826 -5.08423384731907 0 0 0
219 73 9 0.41 -29.163683134891674 6.43542751127379 -6.981180191775173 0 0 1
217 73 8 -0.82 -29.17653245258856 6.479928007860657 -8.000579055718553 0 0 1
2330 777 9 0.41 -30.351368365939642 4.499326361440271 -4.746890534883568 1 0 0
2331 777 9 0.41 -30.279252053881358 2.890525368067175 -5.351180611364991 1 0 0
2329 777 8 -0.82 -29.8981095683246 3.8259127098623225 -5.367302580209439 1 0 0
240 80 9 0.41 -27.901705670288376 8.41091713500873 -6.398154320245307 0 0 0
319 107 8 -0.82 -26.81757497884197 9.378461032540315 -7.166894859328173 0 0 0
309 103 9 0.41 -27.591547537993776 8.749495489370517 9.425488726065563 0 0 0
536 179 9 0.41 -30.76972930474612 3.7317928649845893 -9.276383895740565 0 0 0
320 107 9 0.41 -26.480105226052014 10.033838303650604 -6.455308667370129 0 0 0
3006 1002 9 0.41 -26.490990573854877 5.976017068404854 -10.847204906355344 1 -1 0
2326 776 8 -0.82 -26.75911910481892 6.865487505692691 -9.408148050695427 1 0 1
2328 776 9 0.41 -27.648303148914536 6.850182503001463 -8.90016451572321 1 0 1
624 208 9 0.41 -24.11191964948439 7.558534661860275 -8.751816745703298 0 0 0
768 256 9 0.41 -26.664272613568656 5.870926002260731 -4.564060885275616 0 -1 -1
767 256 9 0.41 -26.11394760326679 7.346110373898462 -4.051932548483147 0 -1 -1
766 256 8 -0.82 -26.039181476776562 6.340629076180534 -3.9534965976696874 0 -1 -1
2890 964 8 -0.82 -31.820956399062066 -7.464182588927038 -7.0162084939281115 1 0 2
1395 465 9 0.41 -20.09289477124289 5.979046053650357 5.939069524687746 0 0 0
514 172 8 -0.82 -31.37069484197542 7.96916846551866 10.771341281782078 0 0 0
1322 441 9 0.41 -18.04300769139749 3.9763062875079473 3.177993318448042 0 0 0
2711 904 9 0.41 -30.157567980268105 5.930033718895473 -9.173656404513299 1 -1 1
307 103 8 -0.82 -27.310079983624163 7.872368805861754 8.993347798607559 0 0 0
3004 1002 8 -0.82 -26.385468048090083 5.457450233032521 10.468418957749911 1 -1 -1
2712 904 9 0.41 -30.8743780945465 6.235143039864003 -10.649747655460482 1 -1 1
2710 904 8 -0.82 -30.901329059887036 5.617074470947401 -9.811299078902637 1 -1 1
1015 339 8 -0.82 -18.213564975516412 6.96497772642779 8.96317343654744 0 0 -1
311 104 9 0.41 -20.19072229744922 10.11337309455945 -6.455303659031868 0 0 0
426 142 9 0.41 -22.590635455703953 -10.713924095413734 -8.760158408917246 0 1 1
576 192 9 0.41 -24.101687640164528 5.577467206401675 -7.198481364469971 0 0 1
556 186 8 -0.82 -22.775578288965914 4.262205835588336 -9.538798305235392 0 0 1
623 208 9 0.41 -23.39442459632629 7.777970687033832 -10.243840113825197 0 0 0
622 208 8 -0.82 -23.69451437131402 8.22886261461501 -9.396693203321528 0 0 0
575 192 9 0.41 -23.921597395712027 5.106113153943205 -8.58726156865621 0 0 1
574 192 8 -0.82 -24.40603739287364 5.894045215293623 -8.103819291357695 0 0 1
557 186 9 0.41 -22.946146646095002 4.635369149026058 -10.455384500475118 0 0 1
2327 776 9 0.41 -25.950105694656422 6.651694104701832 -8.776834679375828 1 0 1
477 159 9 0.41 -22.20980239296469 9.216150282927071 -8.52895082917815 0 0 0
475 159 8 -0.82 -21.335283515774723 9.746563952547305 -8.447866184971797 0 0 0
476 159 9 0.41 -20.705662684595406 9.112249252906949 -7.977521280718256 0 0 0
1192 398 8 -0.82 -17.858957970536945 6.059151893781113 -8.408030089529051 0 -1 1
1194 398 9 0.41 -17.31504457774053 6.814924118359627 -7.977029708310136 0 -1 1
1193 398 9 0.41 -18.231725478712214 5.517902239162783 -7.638736536262164 0 -1 1
216 72 9 0.41 -17.83317031652004 9.038947351899964 -7.466231668869569 0 -1 0
139 47 8 -0.82 -19.370197183315696 10.75282848396089 10.082045174942564 0 0 -1
468 156 9 0.41 -32.64308230912749 7.717204663912945 4.004992323503005 0 0 -1
214 72 8 -0.82 -17.057254901462073 8.455234941544653 -7.196513910887804 0 -1 0
1260 420 9 0.41 -20.516024458059228 5.156719514541237 -4.9912493237598525 0 0 1
1371 457 9 0.41 -20.349347438919665 7.002444938408161 -6.497170510355088 0 -1 0
1369 457 8 -0.82 -19.89236395923502 7.923718811322214 -6.606963911942809 0 -1 0
1370 457 9 0.41 -19.040057911151962 8.011234876133553 -6.055736113578635 0 -1 0
1347 449 9 0.41 -24.90249675851701 4.602149551933973 -4.945868404654666 0 0 0
1345 449 8 -0.82 -24.069255680848823 4.890886778706816 -5.483943151848895 0 0 0
1346 449 9 0.41 -23.751709338518083 5.818492115012667 -5.1621280546269555 0 0 0
1259 420 9 0.41 -20.25473880125751 4.2699531634719055 -6.378925867193046 0 0 1
1258 420 8 -0.82 -20.08591942861229 5.163181454644921 -5.899550452029718 0 0 1
140 47 9 0.41 -20.288950497453612 10.317287443616443 10.270238425206799 0 0 -1
141 47 9 0.41 -18.75696629411475 10.703454538012519 10.923360686366895 0 0 -1
169 57 8 -0.82 -20.09460136976008 6.373731469102864 11.089479011010326 0 0 -1
171 57 9 0.41 -19.696605806336834 6.237594061148812 -10.177511437997026 0 0 0
696 232 9 0.41 -24.851515854722393 4.5709622645609915 10.005336474416765 0 0 0
38 13 9 0.41 -17.415679504997964 7.79243600895488 10.497124446028895 0 0 0
299 100 9 0.41 -19.33713489359255 7.028242116386085 -2.639376693122138 0 0 0
621 207 9 0.41 -18.570617556799174 1.863083908552385 2.695484443509333 0 -1 0
420 140 9 0.41 -30.92621467075191 -8.605968723544038 -7.981166007714577 0 1 0
954 318 9 0.41 -16.94743556754266 3.901783610511192 -5.089111292080624 0 0 1
834 278 9 0.41 -24.10543841452403 9.593381954328542 6.754080226906211 0 -1 0
170 57 9 0.41 -19.327050622169182 6.514745468533828 10.420733863336878 0 0 -1
952 318 8 -0.82 -17.183594884192857 4.824817558009178 -5.519748499177989 0 0 1
953 318 9 0.41 -18.171989494928816 5.001348329935038 -5.57011022910161 0 0 1
1246 416 8 -0.82 -25.304715544074767 -8.642783702610341 -3.915047733696924 0 1 0
1248 416 9 0.41 -25.522993100867026 -7.912523249104288 -3.268694247439214 0 1 0
716 239 9 0.41 -32.38814256754042 -2.3226915268872848 3.453493854776431 0 0 0
512 171 9 0.41 -31.639305338394546 2.454896589270069 -2.397198957611838 0 -1 0
957 319 9 0.41 -28.653154863167384 -6.321779067362262 -1.9572305032337187 0 0 0
2382 794 9 0.41 -28.404704318990554 -9.167422902041501 -1.8541860153651726 1 1 1
2380 794 8 -0.82 -28.739092054324328 -9.883410117206322 -1.2290918123922943 1 1 1
2381 794 9 0.41 -29.46599132026661 -9.599973491537462 -0.5739599496596206 1 1 1
721 241 8 -0.82 -30.98971004587854 -9.101178596008687 0.32705317735902284 0 0 1
723 241 9 0.41 -31.85209405097769 -9.166614789305076 0.9059177312606153 0 0 1
722 241 9 0.41 -30.237138501986866 -8.65398904509428 0.9258451075354959 0 0 1
2984 995 9 0.41 -26.4812303238464 -9.3629896179209 -0.9170893681133983 1 1 -1
2721 907 9 0.41 -29.547202153245408 -7.4604528775591294 2.669612191045882 1 1 -1
2990 997 9 0.41 -24.263596075445165 -7.088795503323789 1.1615684445092995 1 0 0
2719 907 8 -0.82 -29.06150173152229 -7.680164089121572 1.8073045011141176 1 1 -1
2720 907 9 0.41 -28.363686443531577 -6.931736842639562 1.9959231906679893 1 1 -1
607 203 8 -0.82 -24.53255984441449 -4.959665235815311 -4.571497442409111 0 0 0
2416 806 8 -0.82 -31.08846124948459 -5.751376663335676 -0.010191258816295345 1 0 0
2418 806 9 0.41 -30.728566453170306 -6.6767287755096705 0.16192727524937034 1 0 0
2991 997 9 0.41 -24.90187532247923 -8.192847411242823 0.18857578051635926 1 0 0
2989 997 8 -0.82 -24.165169972181054 -8.067470310432595 0.9081566056826009 1 0 0
2983 995 8 -0.82 -26.01164329557764 -8.458601595115738 -1.1068179125504898 1 1 -1
2417 806 9 0.41 -31.440321971244845 -5.773855541629911 -0.9846800756939409 1 0 0
609 203 9 0.41 -23.66603936745352 -5.426881124704763 -4.232418645549261 0 0 0
260 87 9 0.41 -32.105054808328084 -9.474881065922837 -1.580856737517312 0 1 0
132 44 9 0.41 -32.66136242081602 1.3604468143643285 6.837510546356889 0 0 0
273 91 9 0.41 -26.43647955211258 -4.204098871989334 -0.5955926894555557 0 0 0
2985 995 9 0.41 -26.748503607884654 -7.7947072143685965 -0.8806553793650433 1 1 -1
177 59 9 0.41 -23.752959754511313 -9.54182778909401 -3.3342575639629466 0 0 0
18 6 9 0.41 -24.504386229750743 -8.681447472463994 6.062268305936321 0 1 0
271 91 8 -0.82 -25.65155039748553 -4.526302080314363 -1.144817288479608 0 0 0
17 6 9 0.41 -24.156522365919294 -8.383775633123879 4.535055274872356 0 1 0
956 319 9 0.41 -28.06935282224054 -6.199486701361902 -0.33901682893436913 0 0 0
2961 987 9 0.41 -27.199610611109456 -4.966617837388231 1.4215955074657245 1 0 0
955 319 8 -0.82 -28.221991430531638 -6.781959042156627 -1.1437396098932062 0 0 0
511 171 8 -0.82 -31.8864322972289 2.479162623606669 -3.3714725191935315 0 -1 0
3039 1013 9 0.41 -31.848369956247904 -9.561021328110561 7.840097940012342 1 0 -1
2891 964 9 0.41 -31.350657609938885 -6.705417893800035 -6.41886966977123 1 0 2
12 4 9 0.41 -23.27172755520246 -10.569823835618894 -0.7223607317948275 0 1 0
10 4 8 -0.82 -23.803102140061608 11.000404306277247 -0.09706989601993676 0 0 0
541 181 8 -0.82 -32.10999887123023 -9.549588358424241 -4.997625305686497 0 1 0
543 181 9 0.41 -32.38931001979763 -9.383479147789288 -4.018560061323377 0 1 0
11 4 9 0.41 -24.617246482906832 10.506197591346226 -0.4697573487193303 0 0 0
2959 987 8 -0.82 -26.89585268703373 -5.636638436762008 2.1615353739051457 1 0 0
2960 987 9 0.41 -26.62675676413859 -5.184654971365675 3.0723115698588472 1 0 0
2349 783 9 0.41 -32.58296856400407 3.945699702901141 -0.47858646617871514 1 -1 0
484 162 8 -0.82 -21.260728542815393 -9.345076660079396 -5.0966529942958365 0 0 0
485 162 9 0.41 -21.66299196431461 -8.7375945240503 -5.860104206986451 0 0 0
1388 463 9 0.41 -17.150827264705235 -6.012808458632969 -0.8078957016523969 0 0 1
97 33 8 -0.82 -16.947601678692493 -8.88067956944387 -2.7191078737834964 0 0 0
99 33 9 0.41 -17.581330081303097 -8.510331078919192 -3.456979688202841 0 0 0
1017 339 9 0.41 -17.333094534009085 6.47051428037944 8.676883635823401 0 0 -1
2484 828 9 0.41 -17.494925020572197 1.3013729475568514 -9.880243301417297 1 0 1
1387 463 8 -0.82 -16.534650841859282 -5.181015446016443 -0.79670933378436 0 0 1
3037 1013 8 -0.82 -31.486213685360894 -9.077999513617737 6.98924341482406 1 0 -1
599 200 9 0.41 -31.574662622589198 9.015973193443635 -7.18600672665184 0 0 0
445 149 8 -0.82 -17.071672843686375 -0.47287223641870924 -2.9152080579309203 0 0 -1
487 163 8 -0.82 -21.46510775488425 -7.965217201179343 -7.345541774244525 0 0 0
630 210 9 0.41 -21.666946489571465 -6.387786917859702 -3.9234849040928 0 0 0
629 210 9 0.41 -22.52954573678315 -7.439867348393022 -2.94568471686131 0 0 0
628 210 8 -0.82 -22.500711810075053 -6.488507738628214 -3.3501793151298243 0 0 0
1254 418 9 0.41 -18.981768788151623 -7.123313638927317 -0.42461597720169486 0 0 0
1252 418 8 -0.82 -17.992681011132248 -7.408211553133005 -0.5808712194676016 0 0 0
98 33 9 0.41 -17.296869229945084 -8.238642514602038 -1.9576023001832272 0 0 0
1253 418 9 0.41 -17.66795495981314 -7.95688119303212 0.2251419310802376 0 0 0
488 163 9 0.41 -21.444492639039314 -6.943123634307461 -7.347820121150959 0 0 0
236 79 9 0.41 -22.833719025494567 -6.057401015427292 -1.7474634936216251 0 1 0
198 66 9 0.41 -22.314098073621857 -5.488849171054948 1.2338484201008306 0 0 0
438 146 9 0.41 -18.195103854597022 -5.696132236472099 1.8050932513594589 0 0 -1
756 252 9 0.41 -23.692946681424793 -6.143613131717655 3.1054397394355657 0 0 0
755 252 9 0.41 -25.267455746483506 -6.536884034529843 3.803446028141277 0 0 0
754 252 8 -0.82 -24.277584377417632 -6.71914911228472 3.7794787143928925 0 0 0
436 146 8 -0.82 -18.481209812624314 -4.729867288147607 1.9974112969406033 0 0 -1
1518 506 9 0.41 -21.506868653105094 -6.542655587594508 -0.38004342469991315 0 1 -1
197 66 9 0.41 -22.948453627424353 -4.324169329745534 2.3715862325372683 0 0 0
1216 406 8 -0.82 -16.445751951460874 -7.522212327031845 2.5456189608266424 0 1 -1
437 146 9 0.41 -18.815550862107738 -4.612541778563417 2.950885589774913 0 0 -1
821 274 9 0.41 -21.426419334547933 -9.025331324815431 2.9739216266275044 0 0 -1
196 66 8 -0.82 -22.873028297500653 -5.304239258962145 2.065872603512865 0 0 0
1218 406 9 0.41 -16.9715760907717 -7.968537571469982 3.2695128915266007 0 1 -1
175 59 8 -0.82 -22.819294945248696 -9.588023905109573 -2.9244237151739156 0 0 0
176 59 9 0.41 -22.1264992681758 -9.61057973048605 -3.711302832444024 0 0 0
37 13 8 -0.82 -17.518265851820853 8.345560359748895 -10.857852277717505 0 0 1
155 52 9 0.41 -17.084735743061735 -10.615069453835748 -2.839824484505325 0 0 -1
822 274 9 0.41 -22.4525792726048 -8.334342944678236 1.9082373308657878 0 0 -1
1516 506 8 -0.82 -20.633708612620666 -6.9756645869788185 -0.019947611317284952 0 1 -1
1517 506 9 0.41 -20.797719591741735 -7.255259364199274 0.9431973249147543 0 1 -1
820 274 8 -0.82 -21.47765755068947 -8.328811171143196 2.242976898894529 0 0 -1
515 172 9 0.41 -32.298428934562416 8.23564022987128 10.496090348577951 0 0 0
164 55 9 0.41 -31.798551580578273 -3.7957005290616364 0.04801655250061643 0 0 0
551 184 9 0.41 -25.431019499431002 3.6671757790689004 -0.17655770079646338 0 -1 0
434 145 9 0.41 -18.837169078947777 8.803152946113276 1.6245336476900079 0 0 0
542 181 9 0.41 -32.60111332202832 -8.782059335998214 -5.48125447021922 0 1 0
2512 838 8 -0.82 -32.024656437843504 -10.567251880525367 4.7230925860168504 1 0 0
1230 410 9 0.41 -29.06070934438152 -4.345805997013774 -0.08958495659653742 0 1 0
1228 410 8 -0.82 -28.133097167458647 -4.084785480200019 0.28501913498166154 0 1 0
272 91 9 0.41 -25.99054961740024 -4.304014089087811 -2.0745415404759004 0 0 0
1415 472 9 0.41 -20.139278805256357 -1.409461956539225 -4.63518747464918 0 0 -1
457 153 8 -0.82 -28.492471583470454 2.914314855082921 -2.4591496910872195 0 0 0
2687 896 9 0.41 -32.07538932064835 -2.010261257542769 -1.3380788525955865 1 0 0
163 55 8 -0.82 -32.407947108874716 -2.978220905036018 -0.058746928844106705 0 0 0
2742 914 9 0.41 -27.390889618559132 -2.640121599515055 -3.372903481430069 1 -1 0
199 67 8 -0.82 -28.658562549127097 -0.8621364993934737 -2.060255791039035 0 0 0