ITEM: TIMESTEP
2250
ITEM: NUMBER OF ATOMS
32000
ITEM: BOX BOUNDS pp pp pp
7.7425880197877506e-01 8.0225741198021268e+01
-4.9073138295720753e-01 8.1490731382957364e+01
-4.9017062889969765e-01 8.1490170628899762e+01
ITEM: ATOMS id type xs ys zs c_csym c_peratom fx fy fz
8 1 0.049716 0.0261504 0.0242621 0.480027 -3.29541 0.436484 -0.00962286 0.503821
83 1 0.025735 0.0501485 0.0250089 0.454158 -3.3298 0.0119632 0.13433 -0.240107
1602 1 0.0254002 0.0238386 0.0496737 0.96359 -3.28788 -0.0565528 0.756662 -0.134484
1685 1 0.0487202 0.0513447 0.0502107 0.586768 -3.34599 0.204273 -0.0996627 -0.104039
4 1 0.00101069 0.024821 0.0230441 0.725155 -3.31305 -0.128517 0.259811 0.24323
3 1 0.025901 0.000337771 0.0258267 0.35956 -3.31115 -0.127219 -0.362465 -0.260482
12 1 0.101873 0.0280179 0.0250794 1.90907 -3.34098 -0.159012 -0.670892 0.153134
87 1 0.0759578 0.0516929 0.0256351 0.782335 -3.32462 -0.296052 -0.320381 -0.230025
1689 1 0.0998408 0.0512886 0.0510848 0.522916 -3.31742 0.2367 -0.211163 -0.360196
7 1 0.075658 0.000629228 0.0234922 0.782941 -3.32206 -0.117106 -0.0371554 0.691639
1609 1 0.0989789 0.00065259 0.0493428 0.345866 -3.37354 0.228613 0.137838 -0.0624091
1606 1 0.0746607 0.0264042 0.0484366 0.547459 -3.35978 0.165638 -0.0581732 0.172923
16 1 0.148024 0.0267756 0.0229524 1.04269 -3.27378 0.521963 -0.555345 0.438955
1610 1 0.125873 0.0245115 0.0495563 0.779637 -3.34555 -0.290126 0.170709 0.0750378
1693 1 0.151837 0.051414 0.0497213 0.497206 -3.32068 -0.242821 0.403551 -0.0710109
11 1 0.124988 -0.000927703 0.0228192 1.02041 -3.30949 -0.251038 0.408387 0.561074
1613 1 0.149956 0.000591027 0.0482402 0.118737 -3.31465 -0.188461 0.0569729 0.153539
15 1 0.173118 0.00123727 0.0232421 0.312908 -3.31181 0.307338 0.201866 0.0771615
20 1 0.197969 0.0263554 0.0233943 0.975417 -3.27725 0.506063 -0.257265 0.539534
95 1 0.17554 0.0531575 0.0249033 0.764382 -3.3349 -0.232907 -0.210206 0.288741
1614 1 0.173837 0.026184 0.0479532 0.550352 -3.33459 0.311166 -0.245039 0.13814
1697 1 0.200229 0.0491762 0.0515546 1.45605 -3.34895 0.072589 0.204707 -0.556374
24 1 0.250315 0.0256756 0.0253516 0.512446 -3.30163 -0.122482 -0.205277 -0.419338
99 1 0.224449 0.0504718 0.0259646 0.641182 -3.34359 0.18058 -0.107479 -0.0496079
1618 1 0.226103 0.0235216 0.0489014 0.708551 -3.33026 -0.234734 0.479438 0.162662
1701 1 0.25067 0.0492691 0.0498252 0.418092 -3.28548 -0.239316 0.241348 -0.121519
18 1 0.224442 0.0267851 0.00161905 0.681226 -3.35962 0.0873467 -0.281771 -0.21237
101 1 0.252011 0.0496355 -0.000726982 0.834471 -3.3469 -0.0884144 0.231974 0.455205
21 1 0.250599 0.00163529 0.00058313 0.454994 -3.31254 0.0105129 -0.136878 -0.26859
28 1 0.30039 0.025873 0.0230082 0.695119 -3.24918 0.051977 -0.404914 0.487948
103 1 0.275503 0.0482781 0.0239893 0.930454 -3.30251 -0.0245838 0.952935 -0.236072
1622 1 0.275282 0.0260286 0.0469974 1.56752 -3.27033 0.0850881 -0.606554 0.697642
1705 1 0.301644 0.0490991 0.0493409 0.996803 -3.34392 -0.202617 0.116955 -0.0298076
32 1 0.349309 0.0222592 0.0243582 1.13687 -3.22973 -0.222971 1.01992 0.181686
107 1 0.325142 0.0485614 0.0224404 1.06036 -3.34645 0.169447 0.511413 0.258842
1626 1 0.324377 0.0242597 0.0497692 0.47785 -3.33523 -0.0740533 -0.0756775 -0.217684
1709 1 0.347995 0.0483172 0.0492079 0.784569 -3.34944 0.0797065 0.590668 -0.153822
27 1 0.324457 -0.00132106 0.0234777 0.75775 -3.23256 -0.538822 0.492525 0.773656
36 1 0.399525 0.0260589 0.0250491 0.26036 -3.28563 -0.272201 -0.266033 -0.3506
111 1 0.373665 0.0488403 0.0237359 0.512022 -3.33478 0.0893635 0.494784 0.209304
1630 1 0.374571 0.0268381 0.0488951 0.951603 -3.32165 -0.0605962 -0.478162 0.373024
1713 1 0.398042 0.051745 0.0518853 1.4051 -3.28801 0.474815 -0.0826376 -0.642212
31 1 0.374284 0.00139381 0.0254953 0.513285 -3.30867 0.580212 -0.492584 -0.192285
1634 1 0.420221 0.025587 0.0504107 2.50829 -3.30604 0.904728 0.101752 0.170935
40 1 0.447546 0.0253977 0.0253863 0.601924 -3.29257 0.607332 0.204197 0.205889
115 1 0.423573 0.0492171 0.025094 0.504844 -3.34217 0.162052 0.474209 0.205798
1717 1 0.450741 0.0489175 0.0498496 0.424496 -3.35646 -0.324571 0.163944 -0.345163
37 1 0.448851 0.000845465 0.00126183 0.518689 -3.30123 0.0146669 -0.398252 -0.463705
1637 1 0.447205 0.000808979 0.0507061 0.681064 -3.32435 0.314479 -0.123214 -0.243289
35 1 0.424921 0.00248054 0.0238483 1.50968 -3.27688 -0.706147 -0.759539 0.547953
1638 1 0.473562 0.023017 0.0506773 1.12306 -3.29771 0.374147 0.278956 -0.324658
38 1 0.475186 0.0234942 0.00190961 0.698166 -3.30221 -0.0641751 0.680645 -0.447083
44 1 0.499291 0.0245945 0.028821 2.94111 -3.25258 0.0424701 0.489246 -1.20669
119 1 0.47515 0.0488962 0.0242643 0.711926 -3.35024 -0.0712238 0.135745 0.257811
123 1 0.525282 0.050368 0.0237091 0.770632 -3.33116 0.246256 -0.244613 0.651038
1721 1 0.499373 0.0508181 0.0503948 0.715137 -3.30068 0.420577 -0.57627 -0.229766
1642 1 0.525463 0.0236687 0.0484712 0.761151 -3.30962 0.100728 0.350469 0.563673
42 1 0.525183 0.0222876 -0.000549814 1.22067 -3.3542 0.0442751 0.623066 0.0667916
48 1 0.550742 0.023913 0.0256947 0.535751 -3.32356 -0.300849 0.373886 -0.425951
127 1 0.575912 0.0507177 0.0251395 0.405666 -3.32556 -0.344528 -0.426967 -0.0906998
1645 1 0.550606 -0.00181417 0.0519142 1.51747 -3.2692 -0.218888 0.301628 -0.83371
1646 1 0.575365 0.0246762 0.0487678 0.431255 -3.30212 0.235647 0.253503 0.256006
1725 1 0.550636 0.0495054 0.0489146 0.230851 -3.37533 -0.165067 0.430692 0.00402163
52 1 0.599644 0.0251264 0.0250593 0.232011 -3.37797 0.0293499 -0.0699598 -0.260873
131 1 0.62384 0.0508607 0.0269161 0.724075 -3.25912 0.137842 0.0460527 -0.784186
1650 1 0.625012 0.0276228 0.049299 1.11243 -3.273 -0.068246 -0.838881 0.386679
1729 1 0.601113 0.0505463 0.0499584 0.371716 -3.29802 -0.729788 0.0022529 0.479567
1649 1 0.599266 -0.000176494 0.0494462 0.136081 -3.31387 0.177739 0.129684 -0.0275876
50 1 0.626061 0.0253791 0.00122752 0.748376 -3.34009 -0.50174 -0.0639033 0.0372973
129 1 0.600206 0.0499375 -0.000840578 0.392572 -3.35599 -0.00543581 0.221349 0.583905
56 1 0.649901 0.027233 0.0252907 0.56125 -3.3515 0.0397943 -0.397941 0.163575
135 1 0.674454 0.0515391 0.0238649 0.889095 -3.33595 -0.122663 -0.097432 0.899843
1653 1 0.647865 0.00176893 0.0504075 0.821804 -3.32442 0.340101 -0.242921 -0.250654
1654 1 0.674409 0.0246554 0.0500116 0.317268 -3.32959 -0.0451105 0.243962 -0.395321
1733 1 0.65097 0.050673 0.0527395 1.42315 -3.30746 0.157576 0.202269 -0.819704
55 1 0.674293 0.000191907 0.0254927 0.229081 -3.37152 -0.161139 0.152249 -0.350726
60 1 0.699877 0.0249888 0.0236348 0.565586 -3.30261 -0.653012 0.144997 0.480995
139 1 0.724352 0.0502604 0.0249357 0.452838 -3.31276 -0.380199 -0.118312 0.225146
1658 1 0.723634 0.0247964 0.0470928 1.17026 -3.35302 0.347583 0.0679925 0.367016
1737 1 0.698438 0.0515551 0.0509283 1.03016 -3.33911 0.279987 -0.547546 -0.421968
137 1 0.697525 0.0514111 0.000872907 0.626215 -3.27781 0.925384 -0.108796 -0.330944
57 1 0.699729 0.000109319 -0.000321131 0.162971 -3.34894 -0.131248 -0.0422433 -0.139444
64 1 0.752962 0.0234589 0.0249427 2.23152 -3.31121 -0.860939 0.192589 -0.268715
143 1 0.77535 0.0507861 0.0241067 0.42788 -3.3379 -0.130632 0.137018 0.129647
1662 1 0.775492 0.0247741 0.0476365 0.790819 -3.27817 0.043769 0.223405 0.66754
1741 1 0.749511 0.050005 0.0495171 0.471892 -3.30688 0.143019 -0.642038 0.264368
63 1 0.777632 -0.000894508 0.0240887 1.41531 -3.26657 -0.559105 0.173863 0.340208
141 1 0.748888 0.0498467 0.00198862 0.505359 -3.3386 0.149704 -0.0757726 -0.448565
68 1 0.799024 0.0268198 0.0230776 1.19858 -3.27734 0.243243 -0.251361 0.517663
147 1 0.82577 0.0502601 0.0271803 0.981893 -3.3334 -0.326461 0.124638 -0.298098
1666 1 0.824273 0.0254006 0.0493699 0.48915 -3.3049 0.415195 0.27751 0.272997
1745 1 0.799079 0.0514359 0.048919 0.668248 -3.377 0.0380113 -0.139593 0.348099
66 1 0.823661 0.0277407 0.000598726 1.17012 -3.31401 0.71348 -0.735906 -0.0930719
72 1 0.850399 0.0252432 0.0254808 0.220315 -3.30952 -0.254403 0.0586861 -0.321377
151 1 0.875519 0.0484866 0.0256901 0.550466 -3.32627 -0.207765 0.455147 0.0523546
1670 1 0.873223 0.0241184 0.0501433 0.898732 -3.29921 0.904153 -0.196662 0.0628644
1749 1 0.850553 0.0495887 0.0511832 0.228297 -3.34543 -0.234476 0.157943 -0.0124225
149 1 0.849007 0.0515611 0.00195878 0.589278 -3.36291 0.338563 -0.362528 -0.475273
69 1 0.849934 -0.000314759 0.000696979 0.351602 -3.33965 -0.324892 0.301323 -0.218217
75 1 0.925309 0.00111485 0.0249153 0.637396 -3.30981 -0.213522 -0.655879 -0.0278092
76 1 0.90062 0.0263717 0.0254581 0.833561 -3.31429 -0.16369 -0.533351 -0.0607432
155 1 0.924929 0.0499793 0.0242515 0.317653 -3.3374 0.0119792 0.322129 0.264789
1674 1 0.92555 0.0251543 0.0485415 0.803892 -3.27305 -0.43806 -0.0476182 0.79304
1753 1 0.898779 0.047572 0.0524068 1.95799 -3.35388 0.368583 0.429087 -0.41726
80 1 0.949458 0.0243519 0.0266169 1.08171 -3.24908 0.58558 0.294305 -0.887246
159 1 0.975652 0.0510304 0.0243737 0.254176 -3.34846 -0.048638 -0.192539 -0.164806
1678 1 0.976436 0.0253126 0.0466848 1.66371 -3.29997 -0.196178 0.240938 0.583318
1757 1 0.950136 0.0494454 0.0497696 0.374839 -3.37859 0.0979502 0.374189 0.193777
78 1 0.974885 0.0254931 0.000589375 0.450695 -3.36926 -0.158566 -0.485112 0.201881
1677 1 0.949812 0.000133644 0.0495515 0.580668 -3.31936 -0.14131 -0.329437 0.283099
1681 1 0.00106513 0.0517507 0.0476774 0.749362 -3.33134 -0.218356 -0.45407 0.517461
161 1 -0.00162032 0.100295 -0.000179207 0.670455 -3.31568 0.556372 0.200135 0.171345
163 1 0.0284292 0.0992776 0.0250109 2.02432 -3.29906 -0.854476 0.353713 0.0780535
1682 1 0.024011 0.0761936 0.0505016 0.726881 -3.30003 0.678187 -0.193051 0.0555786
1761 1 0.000273708 0.098691 0.0488432 0.905674 -3.28744 -0.165737 0.859696 -0.0445788
88 1 0.0507251 0.0755295 0.0238889 0.396497 -3.3017 0.141983 -0.240719 0.180599
1765 1 0.0512012 0.0990563 0.0509473 0.773242 -3.30592 0.11763 0.175879 -0.12839
92 1 0.0993641 0.076121 0.0238152 0.536939 -3.30814 0.270848 -0.0793449 0.61351
167 1 0.073822 0.101146 0.0238241 0.838357 -3.35952 0.443822 -0.156539 0.244298
1686 1 0.074947 0.0750097 0.0501482 0.325641 -3.34107 0.17375 0.288268 0.0791704
1769 1 0.0991845 0.101809 0.0506856 0.758873 -3.35628 0.121697 -0.624274 -0.0502592
169 1 0.100097 0.100954 -0.00170109 0.513897 -3.32267 0.237595 0.248536 0.455717
86 1 0.0773844 0.0753466 -0.000752247 1.06147 -3.27353 -0.562976 0.304601 0.168495
91 1 0.127628 0.0515296 0.0262623 1.93128 -3.29606 -0.873021 0.349284 0.0381378
96 1 0.151042 0.0775904 0.0243315 0.863846 -3.30333 -0.364432 -0.216343 0.543047
171 1 0.12398 0.0994176 0.0244451 0.644045 -3.33543 0.305324 0.236499 0.058034
1690 1 0.125106 0.0763571 0.0508757 0.394446 -3.32146 0.221017 -0.0405298 -0.583521
1773 1 0.150505 0.100998 0.0501079 0.179207 -3.37495 0.173054 -0.0114704 0.0424277
100 1 0.202343 0.0769179 0.025226 0.850624 -3.33554 -0.382802 -0.122058 0.0631845
175 1 0.176457 0.102823 0.0272323 1.30596 -3.29762 -0.266919 -0.358002 -0.55943
1777 1 0.200018 0.0991182 0.0506499 0.94086 -3.2543 0.638675 0.452738 -0.078474
1694 1 0.17593 0.077706 0.0504936 0.601026 -3.31157 -0.352375 -0.609258 -0.177606
97 1 0.199711 0.0518032 0.00205481 0.916557 -3.31687 0.156184 0.202668 -0.718795
104 1 0.249781 0.0745405 0.0241741 0.39831 -3.32421 0.467154 -0.141277 0.135128
179 1 0.227567 0.100769 0.0242802 0.846657 -3.29494 -0.672598 0.108019 0.182455
1698 1 0.227179 0.0755126 0.0488639 0.936054 -3.33755 -0.242657 -0.0412619 0.477554
1781 1 0.250512 0.100915 0.0502383 0.442989 -3.39224 0.22833 -0.0787036 0.037697
98 1 0.226337 0.0753982 -0.000464323 0.387584 -3.33033 -0.150683 -0.0360739 0.0853524
108 1 0.299455 0.0743392 0.0244186 0.472168 -3.34471 -0.165252 0.00943184 -0.163241
183 1 0.274632 0.099827 0.023639 0.343163 -3.34877 0.283847 0.12111 0.463286
1702 1 0.274831 0.0730664 0.0498179 0.487092 -3.36265 -0.10791 0.3983 -0.169151
1785 1 0.299303 0.0986426 0.0488495 0.366052 -3.31276 -0.17602 0.464353 0.16727
112 1 0.34842 0.074296 0.0237803 0.283543 -3.38766 0.18902 -0.106571 0.0582738
187 1 0.324153 0.0987406 0.0240906 0.419417 -3.31874 0.00748797 0.485894 -0.16286
1706 1 0.323231 0.0762555 0.0494338 0.945815 -3.29345 0.547747 -0.579649 0.184872
1789 1 0.348074 0.100484 0.0501465 0.40893 -3.32246 0.416649 -0.19276 -0.212344
116 1 0.399247 0.0750691 0.0264808 0.774842 -3.38915 -0.0564179 -0.162005 -0.322445
191 1 0.372827 0.0994448 0.0232414 1.13252 -3.28939 0.434759 -0.44166 0.667202
1710 1 0.373079 0.0747928 0.0490033 0.429545 -3.35509 -0.189705 0.0936848 -0.0503047
1793 1 0.398642 0.0986921 0.0517367 1.15411 -3.29074 -0.114657 -0.0506786 -0.700852
193 1 0.398734 0.0977231 -0.000724068 1.24152 -3.28561 0.993088 0.346618 0.257494
120 1 0.45103 0.0745547 0.0246068 0.348801 -3.33145 -0.221661 -0.260207 0.16444
195 1 0.425923 0.0973433 0.0255579 0.690768 -3.34427 0.030202 0.531613 -0.352842
1714 1 0.4268 0.0750454 0.050072 0.954489 -3.24556 -0.450909 -0.819928 -0.488211
199 1 0.474011 0.0994157 0.025702 0.425261 -3.31741 0.0532039 -0.00692005 -0.0821283
124 1 0.500117 0.0759618 0.0253726 0.436381 -3.30938 -0.169891 -0.416634 -0.209295
1718 1 0.47656 0.0738165 0.0500891 0.498041 -3.29336 -0.546908 0.412374 -0.291117
1722 1 0.524273 0.0745094 0.0506478 0.358745 -3.3698 0.306192 0.00229844 -0.0916703
1801 1 0.499936 0.0989719 0.0510024 0.56732 -3.30375 0.304737 0.516158 -0.243982
203 1 0.522483 0.100553 0.025317 1.0472 -3.33663 0.539961 0.408012 0.0744701
122 1 0.526143 0.0767734 0.000752875 0.93758 -3.32355 -0.472131 -0.274534 -0.171004
201 1 0.498026 0.100126 0.000484522 0.42381 -3.33463 0.443368 -0.123207 -0.331618
118 1 0.474248 0.0747188 0.000516986 0.352901 -3.32344 0.31938 -0.170708 -0.0479633
128 1 0.549704 0.0757565 0.0250159 0.251923 -3.30149 -0.298083 -0.247951 0.263074
207 1 0.573011 0.0997554 0.0259655 0.701999 -3.30886 0.354992 0.478865 -0.338316
1726 1 0.575705 0.0760971 0.0494024 0.281552 -3.27526 -0.472802 -0.510013 0.233944
1805 1 0.548044 0.0997775 0.0494883 1.13808 -3.34725 0.0784063 0.244291 0.0814985
205 1 0.548528 0.102356 0.000419809 1.00254 -3.32847 0.433335 -0.300355 0.12743
132 1 0.597832 0.0752792 0.0245139 0.678133 -3.30781 0.694737 0.17745 0.0594927
209 1 0.599067 0.0978009 -0.000775204 1.10767 -3.34296 0.00750194 0.567314 0.194975
211 1 0.623502 0.100866 0.0244098 0.531842 -3.32208 0.0556671 -0.304848 0.120544
1730 1 0.624294 0.0750111 0.050323 0.191705 -3.34606 -0.0655547 0.146085 -0.0843965
1809 1 0.598007 0.100742 0.0509167 0.552659 -3.30719 0.618681 0.255745 -0.546392
130 1 0.625218 0.0755508 0.00116284 0.652913 -3.27208 -0.710564 -0.0810111 -0.372093
136 1 0.648191 0.0738914 0.0238813 1.36367 -3.27993 0.601119 0.450204 0.967191
215 1 0.67382 0.0981968 0.0253202 0.687629 -3.35916 0.121445 0.247089 -0.138262
1734 1 0.676054 0.0760399 0.0524316 1.59432 -3.2766 -0.75734 -0.330009 -0.43772
1813 1 0.647835 0.0988127 0.0488489 0.897931 -3.3238 0.381151 0.269507 -0.0143665
140 1 0.699823 0.0757498 0.0261418 0.328827 -3.35094 0.0269917 -0.146051 -0.172194
219 1 0.724448 0.101506 0.026489 0.374271 -3.35848 0.0529245 -0.207874 -0.179725
1738 1 0.725103 0.0746891 0.0523306 0.79248 -3.3235 -0.227107 0.105965 -0.311917
1817 1 0.698626 0.0990988 0.0502662 0.542452 -3.29427 0.40133 0.506165 0.251019
138 1 0.724066 0.0759132 0.0014773 0.146516 -3.34082 -0.158876 -0.114346 0.0973435
217 1 0.70078 0.101792 0.00181787 0.985794 -3.36459 -0.332057 -0.085133 -0.0510951
144 1 0.748681 0.0728183 0.0269603 1.43615 -3.28426 0.173993 0.967735 -0.584404
223 1 0.774474 0.0999462 0.0256929 0.190243 -3.36781 -0.105377 -0.0191945 -0.192676
1742 1 0.77269 0.0758099 0.0506574 0.896564 -3.30608 0.614907 -0.300423 -0.198834
1821 1 0.748887 0.100204 0.0495366 0.38501 -3.28522 -0.209111 -0.00923003 0.0985719
142 1 0.775156 0.0752642 -0.000124139 0.443637 -3.357 -0.189155 0.0619315 0.502961
221 1 0.749321 0.0994581 0.00176762 0.437998 -3.36658 0.115605 0.286093 0.178083
148 1 0.800391 0.0758152 0.0251149 0.293854 -3.34955 -0.294505 -0.140232 0.125245
225 1 0.799937 0.101689 0.00188528 0.654351 -3.33258 0.0479317 -0.135406 -0.073039
227 1 0.824504 0.0999577 0.0257871 0.136517 -3.33971 0.0785969 0.204347 0.0730679
1746 1 0.824389 0.0752802 0.0520542 0.372686 -3.30652 0.000244701 -0.218279 -0.277621
1825 1 0.799042 0.100238 0.0502626 0.178144 -3.32464 0.0338436 -0.218959 -0.0574789
152 1 0.848833 0.0750452 0.0261191 0.273802 -3.31543 0.209935 0.0646607 0.126736
231 1 0.874971 0.097756 0.0248928 0.972238 -3.29717 -0.443039 0.750844 0.210905
1750 1 0.874388 0.074615 0.0504822 0.227587 -3.34209 0.0676216 -0.149219 -0.0637649
1829 1 0.84865 0.0988908 0.0514422 0.393902 -3.33187 0.234591 0.399522 -0.375027
150 1 0.875058 0.0744999 0.00200769 0.691598 -3.31669 -0.272131 -0.175725 -0.63159
229 1 0.850047 0.100044 -6.51136e-05 0.309631 -3.32855 0.0499817 -0.376652 0.285249
156 1 0.899385 0.0745636 0.024801 0.190016 -3.31673 0.428521 -0.228254 0.274729
235 1 0.926467 0.0996537 0.0232738 0.978905 -3.32964 -0.413541 -0.0400016 0.32917
1754 1 0.924966 0.0760107 0.0484461 0.757136 -3.35721 -0.198808 -0.46179 0.280774
1833 1 0.898889 0.0999692 0.0487464 0.385069 -3.3637 0.14429 0.0736045 0.350502
154 1 0.923743 0.0741328 -0.000697116 0.436201 -3.31135 0.379106 0.0363368 0.374715
84 1 1.0018 0.0756216 0.0232172 0.748234 -3.30399 -0.439106 -0.028016 0.289699
160 1 0.950863 0.0743686 0.0248706 0.36877 -3.35699 -0.330161 0.006838 -0.227915
239 1 0.975193 0.0986194 0.0249559 0.442872 -3.32608 -0.0776685 0.559111 -0.276682
1758 1 0.9759 0.0756551 0.0482693 0.407197 -3.2958 -0.146606 -0.402903 0.59363
1837 1 0.949826 0.0996987 0.0497682 0.125997 -3.30291 -0.0488187 0.0940671 0.0219538
162 1 0.0243096 0.125274 0.00187764 0.587415 -3.32081 0.0161399 -0.13185 -0.583427
168 1 0.0504253 0.125254 0.0241438 0.476634 -3.26724 -0.103987 0.124217 0.749883
243 1 0.0248727 0.149123 0.0264799 0.64399 -3.2638 0.645398 0.240822 0.255087
1762 1 0.0261071 0.121688 0.0511807 2.53554 -3.29464 -0.189774 1.09529 -0.72949
1845 1 0.0508096 0.148631 0.0502941 0.49297 -3.36907 -0.222847 0.0923054 -0.0844707
164 1 0.000529035 0.125988 0.0246148 0.84541 -3.3089 -0.52132 -0.870055 0.528176
245 1 0.0494432 0.15067 0.00117984 0.208471 -3.31735 -0.0046581 0.0725374 -0.0870254
172 1 0.101079 0.125062 0.0249972 0.404063 -3.3243 -0.130476 -0.0314307 -0.235318
247 1 0.0752762 0.150144 0.0255711 0.302599 -3.28572 -0.149322 -0.0880313 0.0226362
1766 1 0.0780155 0.126705 0.0497859 1.47633 -3.32079 -0.595682 -0.198867 0.103387
1849 1 0.101633 0.152446 0.0498028 1.36424 -3.27938 -0.302637 -0.750143 0.439309
249 1 0.101695 0.148903 2.13225e-05 0.799947 -3.34294 -0.400432 0.00552141 -0.365882
176 1 0.150425 0.125782 0.0251591 0.322691 -3.32741 -0.551842 -0.390776 -0.0563169
251 1 0.124592 0.149954 0.024664 0.44768 -3.32514 0.438054 -0.0828904 0.063122
1853 1 0.151648 0.14978 0.0508048 0.585101 -3.28155 -0.591637 0.163246 -0.366276
1770 1 0.125544 0.124078 0.049903 0.504989 -3.34113 -0.0741459 0.392645 -0.0299684
174 1 0.175727 0.126239 0.00200337 0.882013 -3.30925 0.152613 -0.494018 -0.821127
180 1 0.201786 0.12541 0.0266175 0.974566 -3.32253 -0.220942 0.194455 -0.448468
255 1 0.173013 0.148952 0.0238379 2.01388 -3.22677 0.791656 0.672167 0.568347
1774 1 0.175526 0.126479 0.0511922 0.498578 -3.28083 0.0276482 -0.39724 -0.201457
1857 1 0.199554 0.152314 0.0496959 0.90836 -3.32507 0.28618 -0.652414 -0.0296908
184 1 0.249274 0.126603 0.0235766 0.54348 -3.30444 0.135208 0.0244391 0.349937
259 1 0.226669 0.152401 0.0240012 0.904462 -3.28839 -0.224098 -0.462851 0.598286
1778 1 0.224547 0.124972 0.0494717 0.383871 -3.31054 0.487605 0.270585 0.236384
1861 1 0.250184 0.150046 0.0496966 0.60486 -3.36569 0.0481638 0.288809 -0.123752
182 1 0.275039 0.127076 0.00156013 1.16727 -3.32891 0.0160327 -0.239196 -0.704658
188 1 0.299552 0.126103 0.0247271 0.415617 -3.32009 0.362933 -0.560467 -0.170243
263 1 0.275817 0.151342 0.0244366 0.324081 -3.29703 -0.507379 0.113619 -0.00205967
1782 1 0.275828 0.125255 0.0485251 0.471936 -3.29529 -0.464232 -0.187836 0.170161
1865 1 0.298203 0.150589 0.0484039 1.40318 -3.28946 0.796824 0.106533 0.644455
192 1 0.349742 0.122881 0.0238093 0.648102 -3.3382 -0.0486685 0.387004 0.198695
267 1 0.325666 0.148412 0.025372 0.393445 -3.35753 0.134078 0.299569 0.0897526
1786 1 0.324559 0.124057 0.049235 0.380384 -3.34294 -0.253137 0.120612 0.141449
1869 1 0.351282 0.149129 0.0497473 0.264786 -3.36973 0.0519606 -0.180067 -0.0939849
269 1 0.350636 0.149001 0.00178776 0.808996 -3.32278 0.0952915 -0.262663 -0.415878
190 1 0.377532 0.123158 0.00140239 1.63448 -3.30311 -0.4444 0.443381 -0.59016
196 1 0.40237 0.12165 0.0254631 1.50381 -3.33961 -0.35127 0.0946259 -0.279172
271 1 0.377221 0.148804 0.023688 0.5259 -3.31874 -0.253839 -0.130253 0.296185
1790 1 0.376047 0.124362 0.048404 0.566291 -3.37671 -0.383603 -0.0364977 0.0809313
1873 1 0.401672 0.14958 0.0480418 0.890722 -3.28611 -0.324901 -0.103314 0.537395
200 1 0.452254 0.125864 0.0255171 1.71 -3.31477 -0.427439 -0.414397 0.304987
275 1 0.424294 0.147855 0.025238 0.579673 -3.31187 0.652922 0.132498 -0.3077
1794 1 0.424233 0.121856 0.051207 1.23397 -3.29148 0.403726 0.367259 -0.405383
1877 1 0.448594 0.147421 0.0519059 1.60455 -3.3361 0.35402 0.531718 -0.610932
277 1 0.450479 0.147811 0.00101058 0.844524 -3.31074 -0.291271 0.897541 -0.0924892
279 1 0.476384 0.152076 0.0261012 2.205 -3.30609 -0.233923 -0.629213 -0.156055
204 1 0.497022 0.124512 0.023549 1.65959 -3.33043 0.457526 0.340022 0.410685
283 1 0.523485 0.150211 0.0228226 1.06137 -3.36599 -0.0093259 -0.0609005 0.443197
1798 1 0.475813 0.124367 0.0507724 0.555644 -3.37195 0.0996716 0.235721 -0.0267795
1881 1 0.502529 0.14828 0.0511903 2.05775 -3.33435 -0.539946 0.333081 -0.361039
281 1 0.497863 0.150226 -0.00206134 0.793298 -3.3282 0.197185 -0.209233 0.670138
1802 1 0.527865 0.127133 0.0500981 2.37879 -3.30471 -0.516311 -0.78892 -0.153552
208 1 0.550868 0.126737 0.0249259 0.912116 -3.32008 -0.509901 -0.264613 -0.222958
287 1 0.575835 0.148909 0.0246466 0.835802 -3.32243 -0.0279162 0.266241 0.105801
1806 1 0.572858 0.126681 0.0504347 1.12147 -3.32333 0.495556 -0.466146 -0.0264461
1885 1 0.549972 0.151273 0.0511895 0.862444 -3.27859 0.123133 0.245703 -0.35058
206 1 0.576161 0.124263 2.22082e-06 0.581269 -3.34562 -0.261374 -0.0167605 0.0771707
212 1 0.600084 0.123717 0.0260077 0.925236 -3.31754 -0.485082 0.400513 -0.414739
291 1 0.625428 0.151214 0.0268014 0.695682 -3.30382 -0.204435 -0.141643 -0.844571
1810 1 0.623801 0.127127 0.0483588 1.126 -3.30319 0.0675513 -0.50859 0.688608
1889 1 0.598935 0.151495 0.049977 0.635947 -3.3243 0.345024 -0.460055 0.00614599
214 1 0.673657 0.12508 -0.000956559 0.739868 -3.35043 0.618958 -0.215201 0.333728
216 1 0.649826 0.124443 0.0253918 0.491188 -3.34181 -0.112228 0.176056 -0.084617
295 1 0.672929 0.150175 0.0243037 0.56403 -3.32818 0.396537 0.0116201 0.253323
1814 1 0.674308 0.123956 0.0491087 0.525068 -3.34879 -0.340186 0.122328 0.317018
1893 1 0.64971 0.151983 0.0502791 0.656423 -3.2543 0.265694 -0.630689 -0.371039
220 1 0.698679 0.126189 0.0266469 0.466557 -3.31582 0.105558 -0.288073 -0.543006
299 1 0.723466 0.151554 0.0270269 1.04354 -3.32913 0.186573 0.191545 -0.305134
1818 1 0.724175 0.125422 0.0504976 0.250906 -3.3411 -0.123147 0.138012 0.111125
1897 1 0.69761 0.149749 0.0499506 0.529735 -3.29981 0.192207 0.409403 -0.0625385
218 1 0.72573 0.128085 0.00182674 1.38909 -3.28916 -0.0431721 -0.837444 0.0840245
297 1 0.700777 0.149963 0.000639901 0.64749 -3.34142 -0.45318 0.106609 -0.219228
224 1 0.750126 0.12678 0.0259782 0.423024 -3.32705 -0.0424634 -0.272083 -0.226324
303 1 0.778537 0.148937 0.0239267 2.8636 -3.23767 -1.16541 0.903334 0.049748
1822 1 0.773803 0.124527 0.0497185 0.295961 -3.31581 0.0233505 0.360883 0.258964
1901 1 0.749231 0.151648 0.0485562 0.515563 -3.34102 0.022169 -0.0472468 0.183555
228 1 0.799801 0.126813 0.0271479 1.27373 -3.2451 0.63363 -1.09034 -0.524659
307 1 0.823241 0.151252 0.0248718 0.961605 -3.31705 0.40779 -0.259343 0.403223
1826 1 0.824895 0.12393 0.0511418 0.460681 -3.35263 0.0136944 0.174468 -0.118486
1905 1 0.799152 0.15011 0.0509769 0.595179 -3.29321 0.164596 -0.23312 0.336981
226 1 0.826529 0.124241 9.32064e-05 1.00789 -3.34035 -0.610217 0.322622 0.175621
232 1 0.849122 0.124501 0.0251276 0.16607 -3.35375 0.12409 -0.0936701 0.338862
311 1 0.874334 0.149425 0.0256016 0.312599 -3.32541 0.329514 0.356542 -0.199492
1830 1 0.872885 0.126174 0.051172 0.771065 -3.33543 0.444543 -0.576629 -0.189668
1909 1 0.84969 0.149579 0.0499835 0.442576 -3.33185 -0.538363 0.278878 0.0667232
309 1 0.848722 0.150527 0.00207571 1.17603 -3.30508 0.0481847 0.0164257 -0.201837
234 1 0.92665 0.124834 0.00149863 1.00078 -3.34266 -0.387351 0.00738142 -0.270978
236 1 0.897786 0.12403 0.0252196 0.941429 -3.3588 0.504117 0.197979 0.0572135
315 1 0.923976 0.148686 0.0269246 1.15073 -3.33771 0.0681703 0.365562 -0.226776
1834 1 0.92483 0.124269 0.0505573 0.356965 -3.34209 -0.197605 -0.0856543 -0.164238
1913 1 0.899565 0.150671 0.050793 0.389632 -3.33621 -0.184149 -0.307852 0.0131275
313 1 0.900827 0.151045 0.000149554 1.18283 -3.32159 -0.729629 -0.371744 0.448647
1841 1 0.999329 0.150606 0.0474771 1.55282 -3.29939 0.0517326 -0.123318 0.866597
238 1 0.973872 0.123665 -8.54025e-05 0.676821 -3.39877 -0.081176 0.493682 0.139393
240 1 0.950573 0.124676 0.0265536 0.751805 -3.34032 -0.017559 0.184505 -0.461998
317 1 0.948785 0.15086 0.00186965 0.657179 -3.32837 0.0564608 -0.153624 -0.236186
319 1 0.97494 0.152871 0.024194 1.26539 -3.28823 -0.429469 -0.641048 0.162222
1838 1 0.974197 0.124288 0.0495927 0.487327 -3.35644 0.489556 0.243561 0.0268856
1917 1 0.950468 0.151742 0.0493645 0.729423 -3.31945 -0.0329644 -0.500991 -0.0503245
241 1 1.00067 0.150696 0.00346075 2.2144 -3.22657 -0.532591 -0.200687 -1.08996
248 1 0.0493503 0.175541 0.0264593 0.302517 -3.38861 0.0213867 -0.103222 -0.144719
323 1 0.0251629 0.201184 0.0250051 0.463284 -3.29397 0.218219 -0.398778 -0.172526
1842 1 0.0240707 0.176287 0.050008 0.674983 -3.37186 0.311256 -0.352441 0.238918
1925 1 0.0520847 0.199828 0.0514648 0.925787 -3.31662 -0.347569 0.0477902 -0.0624454
325 1 0.0484583 0.199902 0.000175963 0.24844 -3.35423 0.155294 -0.271035 -0.034115
244 1 0.00025113 0.175901 0.0253383 0.365874 -3.2718 -0.122393 0.199637 -0.10997
252 1 0.0985521 0.173551 0.0247916 0.960224 -3.25644 0.761456 0.726338 0.07665
327 1 0.0743049 0.200653 0.0259795 0.393296 -3.36479 0.176601 0.0368565 -0.391472
1846 1 0.0759119 0.175196 0.0503861 0.308063 -3.29326 -0.0959527 -0.206326 0.06576
1929 1 0.10007 0.199529 0.0503572 0.211837 -3.3306 0.301659 0.132487 -0.0963762
246 1 0.0751849 0.174808 0.00205013 0.673752 -3.31962 -0.366929 0.0727603 -0.623039
256 1 0.149283 0.173326 0.023634 1.06448 -3.34173 0.0508628 0.670794 0.412332
331 1 0.123758 0.200045 0.0244881 0.190561 -3.35528 0.1227 -0.145433 0.360056
1850 1 0.126175 0.173978 0.0505822 0.558275 -3.34019 0.197872 0.515631 -0.074506
1933 1 0.147348 0.201433 0.0502325 1.36439 -3.32984 0.385791 -0.310446 -0.12125
260 1 0.201024 0.173902 0.025059 1.01501 -3.27465 -0.21935 0.708051 0.220761
335 1 0.174656 0.199214 0.0258962 0.554651 -3.38076 -0.123932 0.373662 -0.137584
1854 1 0.175035 0.175106 0.0493036 0.505835 -3.30586 -0.306864 0.252802 -0.119352
1937 1 0.198861 0.201332 0.0512075 0.438698 -3.3528 0.365928 -0.0401566 -0.23061
337 1 0.199653 0.200179 0.000689609 0.241949 -3.34856 0.147409 0.273502 -0.00907217
264 1 0.250543 0.176002 0.0226872 1.01736 -3.30088 0.127533 0.132924 0.913517
339 1 0.223693 0.201688 0.0262325 0.961443 -3.38293 0.241183 -0.313428 -0.116969
1858 1 0.225971 0.176153 0.0510954 0.716397 -3.35901 -0.144838 0.227344 -0.388086
1941 1 0.252276 0.200292 0.050485 0.670251 -3.28221 -0.501423 0.329715 -0.57348
268 1 0.303669 0.175187 0.0246163 1.15545 -3.33264 -0.180134 -0.000318612 0.244113
343 1 0.276863 0.20013 0.0230676 0.600018 -3.26864 -0.165922 0.309153 0.513086
1862 1 0.277683 0.178138 0.0479443 1.73406 -3.30992 -0.240814 -0.54754 0.311594
1945 1 0.302799 0.200685 0.0500841 0.47021 -3.34919 -0.0853966 0.0500025 0.066774
272 1 0.351448 0.174066 0.0250564 0.268047 -3.32186 -0.511644 -0.296617 0.0802366
347 1 0.326608 0.201115 0.0246706 0.780461 -3.29872 -0.259042 -0.431849 0.0926924
349 1 0.350885 0.198021 0.00132465 0.699068 -3.26633 -0.054445 0.293107 -0.20427
1866 1 0.325534 0.173926 0.0516071 1.04759 -3.35208 -0.144285 -0.0468985 -0.463925
1949 1 0.350291 0.198753 0.0481038 1.43005 -3.27658 0.0567256 0.000584377 0.67442
266 1 0.326789 0.17377 -0.000853424 0.529973 -3.28732 -0.157532 0.131638 0.41277
276 1 0.401147 0.173104 0.0239122 0.496549 -3.30483 -0.0252865 0.249769 0.121757
351 1 0.376672 0.19673 0.0266005 1.44875 -3.28722 -0.00656241 0.71305 -0.770982
1870 1 0.375325 0.174104 0.0493786 0.374563 -3.33051 0.344463 -0.309857 0.48895
1953 1 0.400257 0.199746 0.0500802 0.25296 -3.31684 0.127332 -0.198994 0.283218
353 1 0.400529 0.199084 -0.000103395 0.23354 -3.37304 -0.193893 -0.20113 0.215109
280 1 0.449881 0.174109 0.0261635 0.414537 -3.32093 -0.505326 -0.062967 -0.285917
355 1 0.424635 0.198162 0.0262236 0.68822 -3.3536 0.0132275 0.0988212 -0.144516
1874 1 0.425331 0.17497 0.0525596 1.16253 -3.31695 0.0527215 0.0521615 -0.914088
1957 1 0.450315 0.202131 0.05111 1.23687 -3.30896 -0.385816 -0.528292 -0.355585
1878 1 0.473191 0.175565 0.0488918 1.22054 -3.29966 0.431278 -0.0748567 0.749512
284 1 0.499702 0.175434 0.0250172 0.430989 -3.3225 0.108956 0.132318 0.0937674
359 1 0.473698 0.20051 0.0245879 0.265127 -3.35104 0.139158 0.131493 0.0798548
361 1 0.498349 0.199514 0.000633321 0.323691 -3.33186 0.173094 0.195397 0.315141
363 1 0.524458 0.200023 0.0259671 0.501173 -3.33426 -0.35115 -0.0374054 -0.107273
1882 1 0.524634 0.175439 0.0498976 0.435508 -3.31849 -0.438287 -0.353328 -0.0706269
1961 1 0.498353 0.200632 0.051859 1.00936 -3.34138 0.282291 -0.305566 -0.559275
288 1 0.549888 0.173754 0.0247684 0.603208 -3.34951 -0.287367 0.274967 0.180488
367 1 0.575838 0.20052 0.0252355 0.934169 -3.35111 -0.452542 0.0577626 -0.0155207
1886 1 0.575399 0.176555 0.0484746 0.879967 -3.28395 -0.668074 -0.440263 0.474663
1965 1 0.547813 0.19895 0.0506675 1.06703 -3.28171 0.434885 0.588061 -0.455703