ITEM: TIMESTEP
16250
ITEM: NUMBER OF ATOMS
32000
ITEM: BOX BOUNDS pp pp pp
6.4638790247132754e+00 7.4536120975286778e+01
-3.1151105632483365e+00 8.4115110563248365e+01
-4.9502898627052971e+00 8.5950289862704523e+01
ITEM: ATOMS id type xs ys zs c_csym c_peratom fx fy fz
4 1 0.00536961 0.0381019 0.0282306 4.14651 -3.30379 -0.0864836 -0.0720603 0.903107
3 1 0.0211255 0.0049591 0.0268506 1.18124 -3.35882 -0.517459 0.0446943 -0.41548
8 1 0.0452412 0.0306126 0.0275684 0.477738 -3.25233 -0.580659 0.0876072 -0.219837
2 1 0.0213135 0.0271058 0.00151807 0.667767 -3.31874 0.686877 -0.14085 -0.104841
12 1 0.084086 0.0249966 0.0243528 1.14546 -3.25421 0.975435 0.154786 0.475148
1609 1 0.0855878 -0.000770127 0.0468093 1.31426 -3.34037 0.269862 -0.0549315 -0.308179
7 1 0.0612859 1.00078 0.0221171 0.856237 -3.28243 -0.0192227 -0.60996 0.0327758
16 1 0.128575 0.0181277 0.023628 4.11609 -3.18711 -0.664242 0.343364 -1.3058
1614 1 0.156375 0.02059 0.0421391 1.18644 -3.23596 0.207934 -0.0637486 0.796975
95 1 0.154466 0.0416301 0.0192755 1.38777 -3.2671 -0.150605 0.599957 0.603718
20 1 0.169753 0.0106112 0.0156663 4.25159 -3.26058 -0.300342 0.372257 -0.41608
99 1 0.192292 0.0371287 0.0153753 6.16288 -3.24227 0.432234 -0.0271853 0.294133
24 1 0.218515 0.0113484 0.0148226 2.53934 -3.25357 0.761127 0.1065 0.126553
1618 1 0.196305 0.0127991 0.0380313 5.82697 -3.24731 -0.322958 -0.0164057 0.399531
1701 1 0.219923 0.0382705 0.0375176 6.61238 -3.29934 -0.244684 0.11815 0.325381
1622 1 0.25011 0.0137109 0.0382229 1.23751 -3.35969 -0.20785 -0.225513 0.0790355
103 1 0.247885 0.0367451 0.0162236 1.09195 -3.31421 0.451946 -0.0191307 0.137789
28 1 0.282983 0.0146817 0.018938 0.781078 -3.29914 -0.438511 0.127942 -0.0689805
1705 1 0.277515 0.0382524 0.0433389 1.30352 -3.29158 0.0373667 0.250579 -0.110977
1626 1 0.308845 0.0161746 0.0459045 0.716632 -3.28028 0.591105 0.624439 -0.0714697
1709 1 0.305748 0.0403226 0.0227973 2.00307 -3.3361 0.662688 0.0466597 -0.103334
1630 1 0.339717 0.0188946 0.0239787 0.667966 -3.32987 -0.636869 -0.217748 0.214493
1713 1 0.367136 0.0406627 0.0281907 1.05514 -3.24052 0.14799 0.374966 -0.498282
36 1 0.367762 0.0189789 0.00369819 0.586059 -3.2979 0.350028 -0.0903807 0.00189811
32 1 0.314214 0.0185218 0.997419 1.24066 -3.29545 -0.0916099 -0.0417333 0.643385
1711 1 0.335821 0.0414716 0.0468153 0.835781 -3.2617 -0.106771 -0.260192 0.390085
111 1 0.338442 0.0432 0.00034995 0.918965 -3.21726 0.474859 -1.05147 0.171137
115 1 0.397369 0.0410259 0.00776526 1.35903 -3.30514 -0.140964 0.476201 -0.714786
1634 1 0.397722 0.018805 0.0294026 0.469648 -3.24254 -0.676154 -0.520015 0.00831239
40 1 0.42574 0.0185178 0.00786889 0.594079 -3.2915 0.216016 0.228377 -0.497983
1717 1 0.423615 0.0412419 0.0304845 1.26954 -3.23218 0.534463 0.766416 0.052411
1638 1 0.453374 0.0202005 0.030948 0.719733 -3.28936 0.15232 0.0417867 0.524842
44 1 0.484985 0.0228848 0.0100904 0.41856 -3.25503 -0.340515 -0.500399 -0.524474
39 1 0.456538 0.998908 0.00899976 0.442518 -3.32769 -0.135539 -0.210389 -0.330291
1641 1 0.483636 0.997204 0.0326799 6.07355 -3.26265 0.243835 0.609401 0.176496
1642 1 0.508802 0.02321 0.0334915 6.62659 -3.26122 0.330354 0.11602 0.362246
48 1 0.540946 0.0257238 0.012947 0.53639 -3.27354 0.00589106 -0.197838 0.0466134
1645 1 0.538311 1.0025 0.0357567 6.37096 -3.25954 0.347156 -0.613811 0.0709615
43 1 0.515152 1.00092 0.010754 0.557112 -3.33783 -0.273496 -0.113063 0.077011
52 1 0.597078 0.0272459 0.0180665 1.23277 -3.28751 0.621773 0.287098 -0.209671
47 1 0.570772 0.0034155 0.0179613 1.54173 -3.30745 0.350001 0.120273 -0.263792
1646 1 0.5672 0.0272424 0.0376412 0.532035 -3.25238 -0.0742611 -0.343971 0.170967
1649 1 0.598838 0.00554922 0.041348 0.566043 -3.35253 0.122827 -0.566482 -0.293326
1650 1 0.6243 0.0295427 0.0417236 0.981 -3.30969 0.707545 0.123394 0.147674
51 1 0.632009 0.0091719 0.0184944 1.16204 -3.32483 -0.143745 -0.396218 0.41791
56 1 0.655783 0.0339 0.0215812 1.41244 -3.30676 0.549507 -0.034454 -0.0105265
55 1 0.687598 0.0130106 0.0216142 2.32256 -3.24679 -0.191959 -0.44334 0.906641
1653 1 0.660314 0.00890212 0.0442268 1.09381 -3.33437 -0.612848 0.168636 -0.0244911
1654 1 0.686315 0.0336438 0.0474441 0.423891 -3.34712 -0.172072 0.343281 -0.274648
54 1 0.690568 0.0359616 1.00385 1.77655 -3.23564 -0.418022 0.184029 -0.778327
60 1 0.717785 0.0372622 0.0258582 1.03542 -3.30664 -0.601744 -0.0300573 0.826819
57 1 0.719109 0.0131866 0.00408979 0.575169 -3.27919 0.386073 0.0272178 -0.0879196
58 1 0.747771 0.037628 0.00828269 1.60718 -3.27697 0.365124 0.169279 -0.744794
59 1 0.747652 0.0148397 0.029247 0.225654 -3.35668 -0.101037 -0.016197 0.311662
64 1 0.776177 0.0392806 0.0305012 0.608459 -3.35051 -0.107723 -0.0817459 0.06099
61 1 0.779994 0.0158267 0.00852885 0.838799 -3.29922 -0.0336837 0.722372 0.161136
63 1 0.808141 0.0197615 0.0319227 0.639093 -3.35028 -0.30528 0.223895 0.115993
62 1 0.80775 0.0437443 0.00995208 0.598933 -3.36102 -0.19357 -0.33927 -0.173366
68 1 0.837513 0.0449821 0.0324545 1.24843 -3.22033 -0.928423 -0.306429 0.536457
65 1 0.839435 0.0232422 0.0105686 0.703007 -3.29853 -0.271193 -0.372072 0.0995922
66 1 0.865251 0.0474131 0.0121675 0.330694 -3.2373 0.313787 0.179267 -0.279547
67 1 0.865342 0.0231137 0.0345325 6.87836 -3.29716 0.309597 -0.131197 -0.11075
69 1 0.897091 0.0268614 0.0140025 6.02449 -3.30621 -0.299248 -0.773149 0.276747
73 1 0.933811 0.0136797 0.0236776 6.71739 -3.2923 -0.0548256 0.220197 -0.218665
76 1 0.932011 0.0376046 0.0453298 2.26857 -3.23971 -0.159831 0.473541 0.0879761
71 1 0.905423 0.0145404 0.0436333 1.93241 -3.26257 -0.452875 -0.0243752 -0.0223895
78 1 0.983295 0.0330461 0.00444125 7.77883 -3.18282 -0.386316 -0.191848 -0.596187
74 1 0.958813 0.041625 0.0254305 5.37806 -3.24306 0.526956 0.109539 0.0919859
79 1 0.978884 0.0121045 0.0282535 5.99727 -3.3495 0.354609 0.24099 0.111033
77 1 0.958156 0.00854151 1.00125 7.22961 -3.30915 -0.201867 -0.0509933 -0.463442
1 1 0.996 0.00133913 -0.00167151 0.598178 -3.3111 0.314259 0.110565 0.379577
83 1 0.027791 0.0649244 0.0333938 8.44941 -3.36138 -0.128662 -0.158076 0.0476351
81 1 0.00793232 0.0571575 0.00303405 4.29136 -3.27593 0.254825 0.0858914 -0.0897831
82 1 0.032571 0.081604 0.00586573 4.84534 -3.27996 0.388491 -0.068742 0.0591144
158 1 0.0146684 0.0972459 0.0278972 4.49476 -3.2246 0.00183574 -1.07978 0.425006
88 1 0.0563951 0.0870475 0.0338716 6.10336 -3.34121 -0.129999 -0.105101 -0.0447999
85 1 0.0492302 0.0523377 0.00216173 0.606248 -3.33389 -0.473528 -0.0555245 0.0472519
87 1 0.0683414 0.0552958 0.0295716 2.02365 -3.30623 0.357835 0.536752 -0.301692
92 1 0.0974783 0.0806175 0.0284646 0.92568 -3.34209 -0.171526 0.192039 0.38381
86 1 0.0737448 0.0778563 0.00400155 0.484401 -3.3111 -0.370236 0.225836 0.351762
91 1 0.112388 0.0497116 0.024225 0.467649 -3.27026 0.271811 -0.202243 0.0281399
1697 1 0.177979 0.0487724 0.0446144 2.8023 -3.25503 0.133092 -0.364667 -0.622526
96 1 0.138151 0.0753291 0.0262274 0.949772 -3.33159 0.317098 -0.0864448 -0.0337283
100 1 0.180498 0.0679465 0.0213572 1.03053 -3.26457 -0.727329 0.24808 -0.857212
1693 1 0.137273 0.0501438 0.0486818 1.19605 -3.3287 0.3092 -0.0443845 -0.364363
1698 1 0.204128 0.0731195 0.042194 1.46301 -3.22169 0.755848 -0.34807 0.73532
104 1 0.219484 0.0618619 0.0139063 6.40023 -3.26643 -0.123622 -0.0594189 0.30684
1702 1 0.245016 0.0634293 0.0361827 8.5768 -3.32404 0.170497 -0.101507 0.540794
1781 1 0.230447 0.0959694 0.0435095 0.593172 -3.30956 0.374662 0.235979 -0.0177003
179 1 0.20627 0.0948532 0.0194732 0.500734 -3.30548 -0.158641 0.0238241 -0.282992
183 1 0.245797 0.0888534 0.0155643 7.17024 -3.27558 -0.023412 -0.080068 0.0995576
1785 1 0.270755 0.0884814 0.03935 7.99404 -3.23891 0.12378 -0.201493 -0.727373
1706 1 0.277255 0.0633416 0.0170519 1.64626 -3.28017 0.096222 0.051601 0.651477
1712 1 0.306886 0.0643232 0.0459805 2.39842 -3.30969 -0.354032 -0.247478 0.126837
1789 1 0.305793 0.0856582 0.0238721 6.83149 -3.30292 0.185469 0.248383 -0.275929
191 1 0.335145 0.0880569 0.00118936 0.553301 -3.26775 -0.272868 -0.0122776 -0.262643
1710 1 0.337711 0.0628353 0.0254462 1.35613 -3.26251 -0.347933 0.262834 -0.0148567
1793 1 0.360054 0.089953 0.0249735 1.69864 -3.29263 0.482776 -0.0958935 0.316339
116 1 0.364151 0.0656516 0.00422414 1.00839 -3.28251 0.653011 0.0920839 -0.32333
1791 1 0.337213 0.0853622 0.0492571 9.40075 -3.28615 -0.0837979 0.48705 0.0363223
195 1 0.391328 0.0911221 0.00335574 0.414467 -3.36499 0.235644 -0.278328 0.308654
1714 1 0.393914 0.065987 0.0265256 1.08624 -3.33351 -0.213186 0.211913 -0.0190154
120 1 0.42518 0.0673754 0.00596148 0.970169 -3.36121 -0.578361 -0.183384 0.0314737
1797 1 0.418406 0.0914596 0.0294161 0.628339 -3.30242 0.361588 -0.100252 -0.705099
1795 1 0.390283 0.0915345 0.0493395 1.90238 -3.22071 -1.17584 -0.279944 -0.0810261
119 1 0.454011 0.0436464 0.00913731 0.690529 -3.26578 -0.725473 0.212893 -0.690656
1721 1 0.478397 0.0448619 0.0305867 1.65712 -3.22087 0.459135 0.422664 1.23255
1718 1 0.449139 0.0685536 0.0302785 0.403248 -3.37447 -0.0576751 -0.14171 0.38614
199 1 0.450415 0.0922751 0.00771936 0.584191 -3.29541 -0.539616 -0.0300719 0.0656889
124 1 0.480929 0.0691043 0.00946052 0.328099 -3.33305 -0.0551006 0.199992 0.199348
123 1 0.510261 0.0467363 0.0122356 0.607443 -3.27011 0.118489 0.581125 -0.0838615
1725 1 0.53779 0.0477649 0.0347746 0.288666 -3.33195 -0.221351 0.200987 0.206323
1722 1 0.508143 0.0693597 0.0352965 0.997612 -3.32236 -0.13621 0.274736 -1.0349
128 1 0.542523 0.0736749 0.0127808 2.01686 -3.26117 -0.730976 -0.101835 -0.0602941
127 1 0.569222 0.0487168 0.0143638 0.772915 -3.29982 0.132328 0.464364 0.15121
1726 1 0.565506 0.0729291 0.0358054 0.613538 -3.31261 0.259014 0.159095 0.58512
132 1 0.595202 0.0749274 0.0145646 1.13249 -3.31811 0.22017 0.292507 0.34528
1729 1 0.59606 0.0510782 0.0408314 1.35891 -3.31279 0.0395758 0.516525 -0.482028
1730 1 0.623769 0.0775171 0.0389947 0.727876 -3.35072 0.0533634 -0.0794988 0.252269
131 1 0.625848 0.0538759 0.0177393 0.675116 -3.3282 0.138016 0.108985 0.227044
136 1 0.656808 0.0807946 0.0210477 0.491007 -3.34052 -0.275571 -0.118306 -0.0834019
135 1 0.685791 0.0595751 0.0246623 0.557545 -3.34777 0.277924 -0.340383 0.009723
1733 1 0.654282 0.0553451 0.0434771 0.177426 -3.35211 -0.0814441 0.145465 0.258631
1734 1 0.683651 0.0820259 0.0458745 0.286015 -3.27335 -0.347012 -0.224051 0.0151737
140 1 0.712121 0.086026 0.0256125 1.07986 -3.31321 0.672526 -0.478163 -0.0635868
137 1 0.715767 0.0599565 0.00314452 1.00499 -3.28216 0.279619 0.503383 0.434235
139 1 0.741185 0.0632003 0.0281694 1.56499 -3.29436 -0.0101805 -0.374659 -0.00828521
138 1 0.743496 0.0861251 0.00616381 0.623543 -3.32027 0.34172 -0.0180019 0.064625
144 1 0.770785 0.0855089 0.0313372 0.973941 -3.35796 0.345081 0.3198 -0.423554
141 1 0.772367 0.0623542 0.00833395 2.15308 -3.32112 0.751431 0.323876 0.0757985
143 1 0.803333 0.0646354 0.0323933 0.336296 -3.35018 -0.159685 0.225401 -0.0994898
142 1 0.80409 0.0898012 0.0104958 0.659054 -3.34876 -0.461751 -0.134629 -0.193088
145 1 0.835104 0.0681565 0.0122133 0.418595 -3.29457 -0.180299 0.122074 -0.567024
148 1 0.831107 0.0903983 0.0329276 0.473615 -3.29859 -0.129915 0.391605 0.338015
147 1 0.860539 0.0689348 0.0364407 1.55854 -3.22611 0.933591 0.648982 -0.539186
146 1 0.862157 0.0927375 0.0125987 0.500694 -3.36368 -0.194325 0.383335 0.130336
72 1 0.891382 0.0485329 0.0337585 9.24322 -3.24973 0.0315161 -0.313549 1.01356
70 1 0.923862 0.0509136 0.0141475 6.99275 -3.11703 -0.487528 -0.0342629 0.612712
152 1 0.890979 0.0957493 0.0362887 1.26003 -3.31354 -0.477711 -0.099811 0.367434
149 1 0.89434 0.0738063 0.0151176 1.94649 -3.20294 -1.06013 -0.81004 -0.140326
151 1 0.919888 0.0679937 0.0375821 7.51722 -3.23573 0.448357 0.925754 0.78944
153 1 0.950409 0.0743532 0.0165907 5.71125 -3.23331 -0.315926 0.80917 0.321295
157 1 0.985638 0.0678511 0.0263138 4.72439 -3.27445 0.844912 0.0893676 -0.0554023
30560 1 0.00781445 0.10435 -0.000700232 7.61638 -3.19481 -0.564513 0.658749 0.367867
161 1 0.0411954 0.119136 0.0331284 6.58159 -3.17134 0.452732 0.571847 -0.627687
30639 1 0.032102 0.131546 0.00289493 6.51102 -3.3182 -0.0710082 0.0667683 0.122586
237 1 0.00266068 0.125851 0.0245339 7.35832 -3.20356 -0.249257 0.209451 -0.579152
165 1 0.0580321 0.108013 0.00797469 4.38484 -3.34761 0.157076 -0.252404 -0.0579932
167 1 0.0795934 0.111747 0.0359676 7.66335 -3.29154 0.869593 0.179307 -0.252367
166 1 0.0852283 0.131864 0.00569157 2.77911 -3.2921 -0.0879475 -0.111595 0.0866723
169 1 0.101607 0.10223 0.00329425 1.53779 -3.27368 -0.825602 0.348305 -0.0223991
172 1 0.10651 0.13717 0.0330595 2.57579 -3.26633 0.0780116 -0.125884 0.1219
175 1 0.165037 0.0992746 0.0236535 0.521184 -3.30558 -0.152864 -0.0591724 0.232494
171 1 0.121011 0.108005 0.0283895 2.72302 -3.30083 0.129986 -0.497215 0.330261
176 1 0.147586 0.130784 0.0264446 0.934361 -3.27536 0.312659 -0.0262508 0.469746
170 1 0.126312 0.127336 0.00203171 1.05608 -3.23004 -0.950238 -0.187681 -0.0829365
174 1 0.164439 0.121713 0.999109 0.507943 -3.26092 0.429026 0.049952 -0.16095
180 1 0.188256 0.124511 0.0229801 1.18841 -3.33622 0.437041 0.570393 -0.000544501
184 1 0.232647 0.122883 0.019493 5.87407 -3.28809 -0.183888 -0.529424 -0.163692
1782 1 0.256832 0.122399 0.043662 5.96765 -3.25029 0.0734854 -0.172697 -0.197313
188 1 0.271899 0.117998 0.0146441 8.34019 -3.18253 -0.580434 -0.320904 -0.710232
1786 1 0.294281 0.114641 0.0363987 9.26935 -3.18373 0.623829 -0.00186005 0.423353
267 1 0.291741 0.142379 1.00079 6.54207 -3.25968 -0.0244172 -0.0237984 0.117297
1869 1 0.317544 0.141638 0.031264 2.41577 -3.27479 0.418571 -0.0644012 -0.335465
1790 1 0.330052 0.112337 0.0214366 5.89649 -3.3243 -0.146559 0.122137 0.327019
196 1 0.361803 0.112711 0.00334746 1.24391 -3.27661 0.00634546 0.230381 -0.58081
1873 1 0.359609 0.137288 0.0251409 6.68817 -3.32988 -0.380389 -0.22333 -0.267608
1794 1 0.389806 0.114848 0.0253261 0.627292 -3.27437 -0.178045 -0.449186 -0.00381936
275 1 0.387332 0.137648 0.00156654 0.52567 -3.3115 0.284906 -0.340072 0.260652
200 1 0.419714 0.115396 0.00247934 1.04804 -3.34146 -0.0755965 0.226945 0.669458
1877 1 0.413227 0.138789 0.0269429 1.47406 -3.3073 0.590902 0.313172 -0.4158
1875 1 0.3862 0.137363 0.0507129 6.16991 -3.27544 -0.372942 0.409492 -0.152835
1801 1 0.475606 0.0926979 0.0320324 0.486621 -3.34744 0.396673 -0.10383 -0.134458
1798 1 0.443687 0.116341 0.0291648 1.12086 -3.34184 0.240388 -0.0632068 -0.298065
279 1 0.449766 0.140471 0.00603137 1.68901 -3.3549 -0.651889 -0.355289 -0.261563
204 1 0.475937 0.11577 0.00813605 1.06051 -3.32849 0.267901 0.415207 0.0912612
203 1 0.50948 0.0944047 0.0119409 0.557058 -3.37057 -0.220378 -0.257925 -0.0308947
1805 1 0.534882 0.0955586 0.0353066 0.295588 -3.32565 -0.150688 -0.233882 -0.258275
1802 1 0.503862 0.11869 0.0316377 0.64664 -3.26314 -0.038319 -0.299072 -0.477611
208 1 0.535415 0.120591 0.0116023 0.363259 -3.22134 0.789842 -0.34918 0.505629
1806 1 0.559022 0.122648 0.036945 1.75611 -3.31834 0.621998 -0.434253 -0.36326
207 1 0.566574 0.0984475 0.0148384 0.581464 -3.3613 0.035809 0.309144 -0.527286
1809 1 0.59315 0.100036 0.0366092 0.589236 -3.30649 -0.151215 -0.07944 0.358016
211 1 0.623785 0.101509 0.0176476 0.524648 -3.31199 0.302983 0.0598667 0.131495
212 1 0.593419 0.124883 0.0159934 0.84763 -3.32564 -0.00119863 -0.34045 0.0928402
1810 1 0.622567 0.12409 0.0397606 0.310428 -3.3164 -0.174155 0.207451 -0.118002
215 1 0.683754 0.105739 0.0211681 0.652882 -3.27867 -0.434902 0.367615 0.330753
1813 1 0.653841 0.103456 0.0428316 0.37162 -3.3265 -0.0608336 -0.280562 -0.360899
216 1 0.654178 0.127983 0.0206436 0.598357 -3.36321 -0.227217 -0.375357 -0.0444116
1814 1 0.680122 0.129469 0.0456042 0.944614 -3.2885 -0.233738 -0.0886768 -0.207182
220 1 0.712723 0.128491 0.0235175 1.92478 -3.29372 -0.581476 0.407869 0.186122
217 1 0.714546 0.107126 -0.000129106 1.63456 -3.22795 -0.352997 0.303247 0.847906
219 1 0.743271 0.110264 0.0282258 2.06802 -3.28094 -0.356483 -0.626204 -0.243294
218 1 0.73995 0.132661 0.00308862 1.04602 -3.26506 0.482758 0.208353 0.481039
1817 1 0.708174 0.10854 0.0464847 1.66035 -3.28227 0.544589 -0.651895 -0.0983138
224 1 0.76792 0.134779 0.030377 0.570411 -3.30866 -0.0476763 -0.475873 -0.482558
221 1 0.770907 0.110229 0.00719333 0.674067 -3.37881 0.461513 0.124177 0.0865841
223 1 0.797899 0.112042 0.0327136 0.569755 -3.3465 -0.113384 -0.194561 -0.272341
222 1 0.800034 0.135722 0.00978019 0.556575 -3.26347 -0.471581 0.060905 -0.284857
228 1 0.825443 0.138745 0.0310929 1.43567 -3.25757 0.183076 -0.0535729 0.687453
225 1 0.829841 0.114304 0.0129211 1.1358 -3.31792 0.204666 -0.0931936 -0.582556
227 1 0.858177 0.116464 0.0346346 0.671012 -3.35395 0.191098 0.187794 -0.139304
226 1 0.855379 0.141355 0.0124736 0.694653 -3.30778 0.73971 -0.123309 0.181785
150 1 0.918008 0.0960874 0.0149989 1.3421 -3.17982 0.760857 1.30579 0.59694
232 1 0.885599 0.145815 0.0348643 2.79877 -3.29759 -0.131455 -0.888119 0.0925317
229 1 0.889037 0.120365 0.0152906 0.949916 -3.37125 -0.261557 -0.0459566 -0.152669
231 1 0.916685 0.120873 0.0381755 0.655187 -3.27053 -0.706358 -0.387395 0.256856
156 1 0.945197 0.0955809 0.0398927 5.31704 -3.3668 0.203145 0.221718 -0.116127
154 1 0.97561 0.100254 0.0183456 6.4104 -3.32095 0.0353678 0.270994 0.606664
233 1 0.943679 0.124777 0.0194801 1.91763 -3.22951 0.694015 -0.550908 -1.17469
235 1 0.970352 0.121733 0.0416267 5.83063 -3.30203 0.311173 -0.138716 0.23172
238 1 0.0237758 0.152262 0.0238113 7.52567 -3.21542 1.3853 -0.241239 0.318933
30564 1 0.0612585 0.15907 0.00589957 8.39893 -3.24577 0.31648 -0.694546 -0.381593
30640 1 0.00496686 0.156836 -0.00196792 4.6296 -3.22216 -0.269548 -0.831949 0.183445
241 1 0.0554517 0.177007 0.0273631 6.74197 -3.23494 -0.0707058 0.0733438 0.543276
30719 1 0.0310376 0.179832 0.00358555 0.974282 -3.26268 0.239818 0.193933 -0.281621
319 1 0.0236765 0.173175 0.0485086 5.64663 -3.35025 0.267695 0.348159 -0.337612
162 1 0.0684151 0.143312 0.031602 5.28882 -3.27802 -0.605082 0.199328 -0.0806918
245 1 0.0899761 0.184439 0.00862497 8.38864 -3.19911 0.175541 -0.795458 -0.667047
247 1 0.0936551 0.168957 0.0341351 6.45847 -3.24398 -0.00413628 -0.207034 -0.243964
249 1 0.108874 0.15651 0.00675863 1.92955 -3.30366 -0.169203 0.225926 -0.0761143
251 1 0.133195 0.160286 0.0342271 3.55491 -3.3035 -0.218818 0.355564 -0.0206991
256 1 0.160928 0.183523 0.034307 4.74588 -3.30558 -0.243157 0.788868 -0.162274
250 1 0.135315 0.181468 0.00645666 2.04462 -3.33193 0.132929 -0.0980973 0.144077
255 1 0.170472 0.155967 0.0235798 4.06682 -3.2665 0.651019 -0.410794 -0.0828974
253 1 0.146702 0.152539 -0.000382951 2.34632 -3.23858 0.711341 0.195486 0.0692028
259 1 0.214412 0.149836 0.0175618 2.98644 -3.22955 -0.540713 -0.0342473 0.119267
260 1 0.199173 0.17944 0.0225688 1.91651 -3.27704 0.0820458 0.536125 0.225917
264 1 0.2397 0.176062 0.0179581 1.9734 -3.20384 0.272469 0.456509 0.449661
1861 1 0.240049 0.152303 0.0410454 6.49143 -3.30787 0.419878 0.265707 -0.164436
263 1 0.250575 0.149614 0.00507454 9.50615 -3.26757 0.417578 -0.810736 0.0697631
1865 1 0.27946 0.146895 0.029315 8.93443 -3.28858 -0.524127 0.282446 0.395413
268 1 0.277715 0.172528 0.00862358 0.987136 -3.30631 0.185013 0.352291 0.0100655
1866 1 0.303513 0.173264 0.0360685 1.24971 -3.21599 0.710476 -0.313378 -0.220072
1862 1 0.266968 0.180357 0.0393357 1.46549 -3.24176 -0.769893 -0.514108 -0.00146136
272 1 0.317064 0.167059 0.00742448 1.67082 -3.29362 0.00231266 -0.224835 -0.480696
1870 1 0.342636 0.168257 0.03013 1.07408 -3.29842 0.407915 -0.0457359 0.0846162
355 1 0.383738 0.185086 0.000522436 7.07676 -3.30729 0.00263094 -0.146485 -0.275934
1874 1 0.384926 0.16102 0.0238154 7.48699 -3.28842 -0.20191 8.54684e-05 0.0128631
280 1 0.417891 0.162001 0.00277817 1.11171 -3.279 -0.56336 -0.788821 -0.0910498
1957 1 0.410906 0.183969 0.022835 7.68955 -3.29346 0.475993 0.601565 0.743224
1881 1 0.473888 0.139689 0.0309602 1.10402 -3.33555 0.214627 0.272924 -0.578574
359 1 0.442507 0.185064 0.00337313 1.00829 -3.23865 0.539842 0.701365 0.347519
1878 1 0.445439 0.162477 0.0264849 0.661766 -3.29593 -0.426946 -0.0774947 0.0649754
284 1 0.478515 0.16383 0.00528633 2.09657 -3.23773 -1.02105 -0.15745 0.349935
1961 1 0.470513 0.186505 0.0268792 0.895251 -3.2806 -0.262715 0.597649 0.129867
283 1 0.507449 0.142221 0.00860675 0.979958 -3.26089 -0.582511 -0.0781966 0.0354917
1885 1 0.529109 0.144121 0.0330632 0.724752 -3.28301 0.536825 -0.128871 0.153553
287 1 0.561485 0.144674 0.0123564 0.53254 -3.35941 0.173526 0.289389 0.117088
1882 1 0.501302 0.165475 0.0303695 0.352789 -3.32106 -0.0962433 0.0844588 -0.0715722
288 1 0.53076 0.167485 0.0071734 2.0016 -3.31211 0.325288 -0.0570305 0.721581
1886 1 0.557017 0.167455 0.0338372 0.362186 -3.34469 0.277755 0.111675 -0.187226
1965 1 0.52726 0.190687 0.0314572 0.296574 -3.25125 -0.429527 -0.646587 -0.162263
1889 1 0.589692 0.146663 0.0371735 0.254407 -3.35999 0.154215 0.0801114 0.0928214
291 1 0.623818 0.148503 0.0177174 0.713504 -3.31477 -0.682362 -0.177657 0.0351614
292 1 0.59171 0.168935 0.0145872 0.49836 -3.35679 -0.386154 0.0824151 0.235509
1890 1 0.618255 0.171096 0.0391947 0.217918 -3.29195 -0.429139 -0.126588 -0.255487
1893 1 0.647596 0.149671 0.0424973 0.575037 -3.32708 0.535725 -0.0012862 0.050027
295 1 0.682916 0.15106 0.0239055 2.15399 -3.28611 -0.825092 0.0467954 -0.477166
296 1 0.648111 0.173188 0.0190737 0.358874 -3.2546 0.260899 -0.186801 0.336535
1894 1 0.675098 0.173915 0.0443926 0.567359 -3.36224 -0.116923 0.235977 -0.126551
1897 1 0.707012 0.15344 0.0465374 0.233442 -3.29069 0.154085 -0.109447 0.375596
299 1 0.737515 0.155629 0.0266871 0.222823 -3.35636 -0.128748 -0.14019 -0.226051
300 1 0.706208 0.176975 0.0246798 0.356639 -3.32181 0.37879 -0.0222746 -0.427432
1898 1 0.733694 0.177666 0.0483895 0.300291 -3.35987 0.0683786 0.40017 0.0724922
298 1 0.739615 0.179435 0.00413844 0.640431 -3.34151 -0.607285 0.0884062 0.387113
297 1 0.709076 0.152756 1.00224 0.749352 -3.32583 0.424628 0.477867 -0.254637
304 1 0.764666 0.179794 0.0294248 0.390097 -3.23071 -0.780027 0.216285 0.0607788
303 1 0.793878 0.158035 0.0302141 0.81151 -3.276 0.469696 0.262214 0.244339
302 1 0.793196 0.182612 0.0109854 2.40074 -3.27679 1.0029 -0.0757457 -0.913968
301 1 0.768666 0.156928 0.00682668 0.436998 -3.31482 -0.211615 0.252291 -0.0104424
308 1 0.823031 0.184349 0.0341029 0.781926 -3.30508 -0.265842 0.062835 -0.350899
305 1 0.826505 0.163957 0.00952415 2.06569 -3.32611 -0.500697 -0.395973 0.212283
307 1 0.852079 0.163372 0.0366549 1.57344 -3.28334 0.288879 0.227107 -0.810759
306 1 0.852559 0.186501 0.0128707 0.520111 -3.30145 0.121709 0.223229 -0.186033
230 1 0.915434 0.146481 0.0135863 1.62521 -3.26839 -0.146033 0.066264 0.519415
312 1 0.880457 0.18824 0.0367318 0.37817 -3.36975 0.0278195 0.178417 -0.00740669
309 1 0.885519 0.167823 0.0139172 0.725715 -3.31015 -0.196142 -0.202249 -0.359101
311 1 0.913162 0.168093 0.0378387 0.484071 -3.30015 -0.290053 -0.00796587 0.192805
310 1 0.911925 0.192588 0.0142891 0.757828 -3.31141 -0.453215 -0.0626541 0.441188
236 1 0.94371 0.145651 0.0405164 0.899489 -3.18084 -0.336324 0.450232 0.353834
234 1 0.969174 0.153019 0.0214558 4.15462 -3.14356 1.5439 -1.00142 -0.948077
240 1 0.995968 0.148655 0.0443869 5.98767 -3.32211 0.0690591 0.0438795 0.399592
313 1 0.941787 0.171436 0.0182046 0.370469 -3.21296 -0.474997 0.50143 -0.500855
315 1 0.968303 0.174552 0.0425281 2.52223 -3.24834 -0.0782775 -0.288845 0.18926
317 1 1.00012 0.175012 0.0232795 0.928309 -3.24414 -0.477902 0.796808 -0.174742
242 1 0.0614104 0.205137 0.00578409 1.26235 -3.31593 -0.457538 0.409712 -0.585414
318 1 0.0298873 0.200423 0.0260854 1.18022 -3.25491 -0.603109 -0.0186088 -0.499105
323 1 0.0538561 0.226683 0.0280223 0.813938 -3.24258 0.0922858 -0.245883 -0.951712
399 1 0.023319 0.221867 0.0460102 0.827057 -3.26356 -0.26374 0.265609 0.793478
321 1 0.0277635 0.228479 0.00184997 1.78039 -3.30946 0.15865 -0.949594 0.300898
244 1 0.0544123 0.200323 0.0491403 7.12679 -3.28275 -0.471082 -0.048918 0.962669
248 1 0.0823601 0.202891 0.0305182 6.63931 -3.1904 0.228562 0.644956 0.0740795
246 1 0.113409 0.208005 0.00791364 5.789 -3.20629 0.0856206 0.407018 -0.226034
325 1 0.0870726 0.231602 0.00508994 1.72664 -3.28534 -0.375832 -0.733736 -0.226218
327 1 0.1079 0.229855 0.0307363 5.31331 -3.30223 0.124378 -0.29103 -0.339689
252 1 0.119137 0.194078 0.0341036 5.87878 -3.25604 0.454926 -0.240055 -0.119412
329 1 0.142713 0.229104 0.00690886 7.50391 -3.22852 0.00102831 0.574308 0.296526
331 1 0.145874 0.218975 0.0355648 7.91757 -3.26083 0.0200716 -0.394229 -0.446713
333 1 0.165342 0.203408 0.00830343 7.1045 -3.29433 0.0415312 -0.0774705 0.0113081
335 1 0.187978 0.21106 0.0324988 2.31352 -3.26987 -0.529314 -0.74749 0.369604
339 1 0.224926 0.205559 0.0229659 1.29345 -3.32933 0.546026 0.163176 0.11638
347 1 0.305498 0.197723 0.013537 1.41349 -3.29767 0.0958372 -0.175507 -0.545698
343 1 0.267106 0.204523 0.0161881 1.42763 -3.31564 -0.516852 -0.172068 0.0747351
344 1 0.2534 0.233516 0.0248211 0.704826 -3.26986 -0.273802 -0.587057 -0.460026
348 1 0.293588 0.22905 0.0190934 0.768303 -3.36259 0.0363086 0.192421 -0.0921956
1945 1 0.29212 0.203753 0.041208 0.474956 -3.25633 0.161458 0.413462 0.36201
351 1 0.344507 0.191818 0.00515909 0.506608 -3.327 -0.18376 -0.0875526 -0.151832
1953 1 0.370563 0.190605 0.0286441 1.37264 -3.28431 0.156977 0.311084 0.382803
1949 1 0.332265 0.200883 0.0359822 1.19419 -3.31388 -0.0671339 -0.330791 -0.141889
352 1 0.333408 0.222338 0.0100382 1.97435 -3.30685 -0.201458 0.376518 0.614424
1950 1 0.357925 0.225429 0.0344143 1.58364 -3.29883 0.0580009 -0.226311 0.301551
356 1 0.373801 0.215659 0.00700332 1.0796 -3.23761 -0.590012 0.309751 -0.428226
1946 1 0.318677 0.2311 0.0437839 1.05263 -3.29261 -0.268969 -0.524277 -0.0576104
1954 1 0.396255 0.216095 0.0297469 2.04385 -3.26579 0.861617 0.0181306 0.722401
360 1 0.413999 0.209597 0.0019553 6.65892 -3.34661 -0.0523524 0.0385635 0.136075
439 1 0.440078 0.235251 0.0024988 6.03358 -3.2997 -0.324505 0.139018 -0.0844292
1958 1 0.43962 0.211489 0.0270878 7.47512 -3.31622 -0.584676 -0.428622 -0.629485
364 1 0.467228 0.210882 0.00441426 1.18066 -3.35715 0.433769 0.0839746 0.230341
2041 1 0.464664 0.236723 0.0249894 7.90441 -3.32859 0.498893 0.229896 0.354496
1962 1 0.496928 0.213658 0.0296852 0.678629 -3.25352 -0.49146 -0.389628 -0.589364
443 1 0.496847 0.236588 0.00577989 0.575026 -3.35969 -0.0286489 -0.0957738 -0.159497
363 1 0.499459 0.189284 0.00788151 0.690696 -3.2979 0.500527 0.45358 -0.386214
367 1 0.556712 0.191355 0.0115844 0.875026 -3.22156 0.737973 -0.290933 -0.293829
2045 1 0.52024 0.23684 0.0313771 2.0014 -3.23751 1.12322 0.269051 -0.338409
368 1 0.526289 0.213761 0.00823667 0.42272 -3.36298 0.10536 0.40476 -0.0652123
1966 1 0.553561 0.212158 0.0320609 1.4691 -3.2392 0.549028 1.15564 0.443905
1969 1 0.58645 0.192904 0.0354176 0.293144 -3.39246 0.0320209 -0.0954816 0.0715761
371 1 0.619261 0.19439 0.0151792 0.354871 -3.30596 -0.564189 0.261664 0.37133
372 1 0.586708 0.214671 0.013134 0.390106 -3.34815 -0.034497 0.273413 0.0441035
1970 1 0.614845 0.218181 0.0378091 0.66766 -3.33085 -0.409481 -0.299023 0.258083
1973 1 0.644375 0.196299 0.0396998 0.529225 -3.33856 0.290823 0.126577 0.10929
375 1 0.675785 0.197467 0.0196371 0.685262 -3.30652 -0.272356 0.404393 0.641478
376 1 0.644983 0.220648 0.0178209 0.634568 -3.33677 0.463764 -0.306714 -0.12303
1974 1 0.672093 0.221702 0.043325 0.397164 -3.34038 -0.460964 0.00384978 -0.212807
1977 1 0.702891 0.199659 0.0448476 0.339076 -3.31419 0.151468 0.128059 -0.00511725
379 1 0.734255 0.203521 0.0262297 0.460126 -3.38166 0.0381663 -0.275024 0.0253894
380 1 0.70117 0.224347 0.0243743 0.975637 -3.29186 0.330388 -0.216326 -0.342879
1978 1 0.731202 0.226744 0.0483042 0.818357 -3.31597 -0.173084 -0.131891 -0.641297
378 1 0.732586 0.225442 0.00340496 0.848312 -3.32585 0.34902 0.137934 0.121229
377 1 0.706592 0.199961 0.00177619 0.65777 -3.32702 0.305487 -0.0686797 -0.214432
384 1 0.761581 0.22801 0.0268449 0.457424 -3.37662 -0.0286414 0.202189 -0.0137534
381 1 0.766424 0.203936 0.00626105 0.723294 -3.30914 -0.239776 0.508712 -0.0312763
383 1 0.789901 0.205506 0.03157 1.08387 -3.29848 0.653087 0.339088 -0.460353
382 1 0.794182 0.230644 0.0058051 1.40699 -3.32321 -0.430619 -0.170891 0.745092
388 1 0.819031 0.229566 0.032856 1.09943 -3.36234 -0.299829 0.316319 -0.310899
385 1 0.823024 0.208276 0.00898688 0.663181 -3.37027 -0.240552 -0.127756 0.40867
387 1 0.848684 0.209083 0.0351537 0.344058 -3.32394 0.213089 0.0257733 -0.237551
392 1 0.87453 0.234788 0.0358718 0.466405 -3.34132 0.225443 0.127815 -0.333959
386 1 0.847867 0.235148 0.011394 0.516593 -3.35128 0.180724 -0.168426 0.0883326
316 1 0.935895 0.193052 0.0410588 0.690672 -3.31234 0.633858 0.339184 -0.180232
389 1 0.877795 0.21136 0.0130159 1.0538 -3.33293 0.110153 0.290181 0.227636
391 1 0.906417 0.213935 0.0383333 0.137157 -3.34911 -0.00476363 0.0510129 -0.231141
390 1 0.906047 0.235217 0.0152912 1.61184 -3.34329 -0.243693 0.617102 0.231136
393 1 0.937503 0.216397 0.0182748 0.523766 -3.29846 0.353369 0.307093 0.213531
320 1 0.996338 0.196766 0.0464373 0.596652 -3.35147 -0.0894009 0.184928 -0.0582077
314 1 0.968439 0.196359 0.0200499 0.270772 -3.37444 0.367189 0.205045 0.0601446
395 1 0.96574 0.219003 0.0426702 0.444488 -3.35123 -0.246525 -0.436552 0.0131493
397 1 0.997829 0.221459 0.0229165 0.651544 -3.37541 -0.189247 -0.00260265 -0.329399
324 1 0.0230604 0.249625 0.0244087 1.14638 -3.17334 0.0632556 -1.0989 0.156886
322 1 0.0554792 0.250073 0.00548695 0.916172 -3.2474 -0.222663 0.102588 -0.669373
403 1 0.0488746 0.273766 0.0269481 0.930829 -3.28828 -0.128465 -0.142985 0.226956
2001 1 0.016108 0.270076 0.0477061 0.587879 -3.30132 0.449758 -0.0282485 0.47404
401 1 0.0241848 0.270005 0.00306792 1.02798 -3.25603 -0.149476 0.66437 -0.633294
1922 1 0.0456852 0.248193 0.0478739 2.0768 -3.23447 0.174124 0.680304 0.602494
328 1 0.0780999 0.251836 0.0287003 0.943014 -3.2086 0.203469 -0.204328 0.197936
326 1 0.112547 0.253541 0.00583732 0.897823 -3.26936 0.228271 0.072975 -0.257322
405 1 0.0804169 0.274533 0.00581213 0.41404 -3.31173 0.0687338 -0.0983542 -0.297757