ITEM: TIMESTEP
5750
ITEM: NUMBER OF ATOMS
32000
ITEM: BOX BOUNDS pp pp pp
2.1966638576624002e+00 7.8803336142337642e+01
-1.0928690692884899e+00 8.2092869069288483e+01
-1.0993157362557611e+00 8.2099315736255676e+01
ITEM: ATOMS id type xs ys zs c_csym c_peratom fx fy fz
8 1 0.0495566 0.0255914 0.0272812 0.864328 -3.32904 0.048789 -0.297567 -0.881677
1602 1 0.0245575 0.0270605 0.050657 0.682774 -3.24407 -0.476987 -0.720827 -0.147742
1 1 0.99907 0.999242 -0.000204602 0.624359 -3.30505 0.255723 -0.0748438 0.665843
4 1 0.999348 0.0275349 0.0259292 1.18208 -3.29894 -0.200532 -0.944822 0.0499413
2 1 0.0235565 0.0235094 0.00137033 0.725543 -3.36618 0.361192 0.148187 -0.0511521
5 1 0.0499203 0.999285 0.00331226 1.28386 -3.3477 0.0602861 0.250655 -0.503468
12 1 0.10157 0.0258578 0.0261321 0.656171 -3.36283 -0.452972 -0.33223 -0.0318874
1689 1 0.0993153 0.0498382 0.0502098 0.560242 -3.3733 0.368695 -0.0747474 0.0482186
7 1 0.07321 1.00057 0.026962 0.729773 -3.33054 0.418294 -0.0861539 -0.27536
16 1 0.150786 0.024647 0.0268888 0.705973 -3.30143 -0.434114 -0.155762 -0.415839
91 1 0.126135 0.0494591 0.0242604 0.766608 -3.29935 -0.054002 0.0148086 0.575879
93 1 0.151082 0.0481686 1.00092 0.465165 -3.28806 -0.0450842 0.466741 -0.169572
20 1 0.202746 0.0280975 0.0256004 1.99971 -3.30395 -0.556096 -0.580521 -0.141535
95 1 0.175468 0.0499474 0.0255385 0.245718 -3.31339 0.142077 -0.034343 -0.0798837
24 1 0.247925 0.0248033 0.0257195 1.10343 -3.32623 0.748977 0.197393 -0.508555
1618 1 0.2256 0.0243978 0.0503105 0.546086 -3.28398 -0.127597 0.381836 0.357399
1622 1 0.274597 0.0256417 0.0476469 0.982319 -3.34854 0.0471197 -0.161875 0.546924
22 1 0.274611 0.0235866 0.999179 0.392546 -3.32129 -0.397926 0.159241 0.46441
23 1 0.274836 -0.000796362 0.0246553 0.205117 -3.35281 -0.157179 0.282545 0.114336
18 1 0.22626 0.023918 -0.00118506 0.852883 -3.30205 -0.439736 0.209935 0.107636
28 1 0.299697 0.023587 0.0249386 0.365391 -3.33602 0.148999 0.322599 -0.152957
1626 1 0.324585 0.0244304 0.0512754 0.774658 -3.31051 0.298967 -0.17907 -0.510547
26 1 0.32571 0.0238026 1.00125 0.495309 -3.34641 -0.0227272 0.117048 -0.181004
32 1 0.35162 0.0243285 0.0258076 0.569425 -3.36734 -0.350596 0.136045 -0.106243
111 1 0.374836 0.0510442 0.0262699 0.908547 -3.23475 -0.298083 -0.782049 -0.194292
1630 1 0.374933 0.0232305 0.0503606 0.739647 -3.30514 0.0258793 0.262285 -0.418995
30 1 0.374746 0.024236 0.998995 0.830851 -3.33018 0.304947 0.0253382 0.260282
1629 1 0.350016 -0.00216137 0.0502085 1.01965 -3.34392 0.440404 0.610146 0.00542563
31 1 0.376968 1.00064 0.0242342 1.07354 -3.35708 -0.379264 -0.616208 0.255313
29 1 0.349998 -0.000251587 1.00008 0.438864 -3.33557 0.205327 0.0809397 -0.281636
36 1 0.400478 0.0243983 0.0234442 0.718005 -3.28254 -0.213439 0.403095 0.416251
1634 1 0.426281 0.025699 0.0493636 0.777571 -3.29862 -0.233919 -0.122052 -0.0379191
40 1 0.450152 0.0251519 0.0238777 0.567033 -3.29299 -0.339064 -0.0145828 0.260409
44 1 0.501712 0.0255288 0.0252898 0.792854 -3.33446 -0.605498 -0.0718613 0.244151
39 1 0.474318 1.00078 0.0248839 0.191117 -3.29265 0.314247 0.0964512 0.250146
37 1 0.449725 -0.00131564 -0.000644935 0.415253 -3.33698 -0.00207904 0.257636 0.0782102
1721 1 0.500387 0.0493073 0.0505148 0.493258 -3.30894 -0.406967 -0.0628006 -0.144505
38 1 0.475214 0.0233221 0.00168331 0.935811 -3.30017 0.0786876 0.767509 -0.444982
121 1 0.500491 0.0513774 0.000292862 0.510522 -3.31561 -0.999177 -0.0703814 -0.0604578
48 1 0.549357 0.0251448 0.0242044 0.630575 -3.30419 0.0432563 0.393282 0.426287
42 1 0.524856 0.027615 0.000890065 0.716352 -3.26501 0.222468 -0.602352 -0.0153555
1641 1 0.501805 1.00133 0.0507224 0.754359 -3.33901 -0.672674 -0.127269 -0.190511
41 1 0.499814 -0.000551443 1.00156 0.570146 -3.30913 0.442651 0.234924 -0.214783
43 1 0.525255 0.000768673 0.0258801 0.276068 -3.32147 0.108651 -0.209952 -0.312127
1645 1 0.551156 0.000159811 0.0492682 0.661031 -3.2964 -0.374282 -0.266772 0.538664
52 1 0.59848 0.0234309 0.0247561 1.27303 -3.25979 0.52674 0.54425 0.843726
1649 1 0.599937 0.000652245 0.0518451 0.805091 -3.35174 0.133733 -0.111399 -0.589317
1650 1 0.625437 0.0250336 0.0496248 0.259177 -3.3827 0.148785 -0.0918047 0.0790793
51 1 0.626974 1.00126 0.0239078 1.40977 -3.3197 -0.497876 -0.389481 0.435414
56 1 0.651772 0.0249435 0.0260225 0.655027 -3.29303 -0.0791101 -0.213876 0.0326529
1653 1 0.650303 0.998193 0.0490941 1.40113 -3.30086 -0.288017 0.595565 0.49004
53 1 0.651264 0.000136233 -0.000516346 0.642562 -3.33507 -0.243738 0.213891 0.147721
55 1 0.675225 1.00007 0.0265565 1.03852 -3.2431 -0.304016 0.291919 -0.5219
54 1 0.674321 0.0247818 0.999682 0.262169 -3.31143 0.296368 -0.219063 -0.0499998
60 1 0.69807 0.0245003 0.0236862 0.744704 -3.31546 0.462575 -0.0691927 0.451352
1657 1 0.70261 1.00001 0.0488121 1.35609 -3.32663 -0.2796 0.219262 0.258363
137 1 0.699561 0.0504816 0.999627 0.420864 -3.28493 -0.366504 0.0590843 -0.320496
57 1 0.699319 -0.000422613 -0.00158337 0.654912 -3.28879 -0.226118 0.250159 0.371441
1658 1 0.726578 0.0259935 0.0496357 1.01822 -3.32157 -0.569941 -0.24395 -0.156476
64 1 0.748822 0.0252824 0.0231594 0.535023 -3.30048 0.039447 0.0113529 0.442975
143 1 0.77495 0.0506515 0.0249006 0.279679 -3.35673 0.210735 -0.201704 0.213121
62 1 0.774441 0.0249976 1.00214 1.93099 -3.32177 0.605674 -0.0492843 -0.658752
59 1 0.725244 0.000540141 0.0229293 0.394466 -3.32875 0.124953 -0.166959 0.154926
68 1 0.801211 0.024829 0.0258624 0.665794 -3.30778 -0.764574 0.300627 -0.329048
147 1 0.824241 0.0504682 0.0239382 0.621565 -3.30238 0.0249892 0.0227234 -0.00119375
66 1 0.824631 0.0251155 -0.00080995 0.296919 -3.31417 -0.22591 0.109164 0.0638294
67 1 0.824739 1.00237 0.0256479 1.14657 -3.28369 0.300402 -0.730261 -0.0274164
72 1 0.849622 0.0271896 0.0242914 0.967229 -3.24222 -0.28101 -0.632131 0.187035
1749 1 0.849264 0.0497889 0.0499151 0.273564 -3.29005 0.39534 0.250463 0.268083
149 1 0.850684 0.0496308 -0.000556318 0.647629 -3.35303 -0.269114 0.315378 -0.0633451
70 1 0.874008 0.0249172 1.00175 0.51297 -3.3043 0.149908 -0.293451 -0.451008
69 1 0.847099 1.00056 1.00058 1.18275 -3.32671 0.865947 -0.380266 -0.05949
76 1 0.89868 0.0256311 0.0257725 0.271814 -3.34995 0.104778 -0.215996 -0.0943844
1674 1 0.92331 0.0241012 0.0509847 0.430259 -3.29386 0.0498028 -0.0852368 0.194059
80 1 0.94807 0.0244802 0.0261723 0.455541 -3.31589 0.45637 -0.179909 -0.253046
159 1 0.973806 0.0500559 0.0248553 0.202585 -3.28258 -0.0019565 -0.216505 0.322303
79 1 0.975588 0.999294 0.0261676 0.72167 -3.3302 -0.602524 0.373476 -0.475139
157 1 0.950208 0.0489506 0.000358226 0.454226 -3.33577 -0.0381338 0.215708 -0.161059
83 1 0.0241916 0.0501724 0.0256322 0.325107 -3.25069 0.662564 0.15816 -0.1059
1685 1 0.049968 0.048506 0.04903 0.851597 -3.22284 0.324606 0.729106 0.164985
1682 1 0.0274864 0.0744592 0.0501335 1.40455 -3.32351 -0.946309 0.182139 -0.339764
88 1 0.049487 0.0761984 0.024382 0.748855 -3.33851 -0.0502911 -0.428454 0.111634
84 1 0.999651 0.0733705 0.0248788 0.684086 -3.27483 0.123834 0.540544 0.430867
1761 1 0.9985 0.100338 0.0533179 1.95177 -3.29372 0.406918 -0.104568 -0.753807
87 1 0.0752468 0.0508987 0.0236124 1.17204 -3.3423 -0.317784 -0.209128 0.492768
92 1 0.101058 0.0749301 0.0271728 0.679477 -3.30874 -0.270545 -0.151362 -0.324255
169 1 0.101373 0.0991941 0.00210457 0.674689 -3.30407 -0.354553 0.0346102 -0.240723
96 1 0.150934 0.0738073 0.0262051 0.340742 -3.31209 0.0255898 0.179088 -0.363708
1690 1 0.125807 0.0744558 0.0502701 0.32428 -3.30091 -0.122048 -0.208587 -0.0712739
90 1 0.125706 0.0747324 1.0022 0.292769 -3.34594 0.15232 -0.0787977 -0.305704
100 1 0.198234 0.075686 0.0256705 0.836731 -3.33995 0.38061 -0.268332 -0.289918
99 1 0.22623 0.0511989 0.0250284 0.609423 -3.26225 -0.0887663 0.0360192 0.214803
103 1 0.2737 0.0514207 0.0244823 0.925711 -3.35571 0.108433 -0.537179 -0.233209
101 1 0.248255 0.0496264 -0.00111564 0.656388 -3.28797 0.684948 -0.323835 0.237873
104 1 0.249228 0.0758531 0.0261444 0.875772 -3.27376 0.519384 0.121589 -0.350778
1781 1 0.250969 0.0985002 0.0501723 0.708697 -3.33289 -0.232416 0.608872 -0.135671
107 1 0.325785 0.0513228 0.024276 1.21102 -3.28187 -0.367188 -0.829741 0.0591699
108 1 0.299623 0.0750152 0.0240315 0.336937 -3.32157 0.0890969 -0.201555 -0.109443
1785 1 0.300184 0.100471 0.0480197 0.798413 -3.27478 -0.350892 0.00859705 0.733902
1706 1 0.324714 0.075804 0.0506815 0.440415 -3.33348 0.0620792 -0.291733 -0.201366
106 1 0.324642 0.0730618 -0.000217847 0.507754 -3.35368 0.0404903 0.393456 -0.0830542
105 1 0.29893 0.0475069 -0.00027842 0.772649 -3.31413 0.192044 0.494475 0.303999
112 1 0.34965 0.0738003 0.0257457 0.429487 -3.29201 0.138942 0.721028 -0.190498
1789 1 0.348902 0.100888 0.0501379 0.627042 -3.36118 0.728656 -0.100346 -0.0242406
191 1 0.376324 0.0984923 0.0238536 1.35098 -3.30675 -0.530681 0.215121 0.369063
189 1 0.348623 0.100559 1.00204 1.23633 -3.32743 -0.113515 -0.430744 -0.428999
115 1 0.425575 0.0500546 0.0279309 1.54754 -3.30616 0.376222 0.0525925 -0.729464
116 1 0.399855 0.0725373 0.0268462 1.7269 -3.20645 0.439746 0.9278 -0.534907
1793 1 0.399281 0.100702 0.0489944 0.824844 -3.30822 0.0777912 -0.0932792 0.399931
119 1 0.473722 0.0506183 0.0258027 0.658519 -3.35652 0.413372 0.0536415 -0.373049
120 1 0.448921 0.0764584 0.023855 1.15266 -3.33158 0.308218 -0.0926407 0.77644
124 1 0.498343 0.0759551 0.0247304 0.722771 -3.30287 0.352422 -0.147769 0.0387916
123 1 0.523181 0.051067 0.0252115 0.836003 -3.29446 0.619664 0.0431267 0.214379
1725 1 0.549341 0.0504195 0.0487049 0.525622 -3.33331 0.187175 0.0580558 -0.00999744
1722 1 0.522678 0.0754641 0.0499037 0.698574 -3.31606 0.456411 0.0210022 -0.219024
203 1 0.526624 0.101537 0.0244752 0.975127 -3.35471 -0.482225 -0.278916 -0.0200402
128 1 0.550015 0.0759482 0.0250942 0.215015 -3.34273 -0.160141 -0.144573 0.175313
125 1 0.551784 0.0507819 1.00023 0.727953 -3.31392 -0.398517 0.089914 0.105839
127 1 0.575079 0.0504639 0.0247143 0.193509 -3.32654 -0.00556294 -0.0237135 0.513095
1729 1 0.601506 0.0504376 0.0496778 0.468684 -3.35691 -0.544555 -0.279904 0.186977
132 1 0.601435 0.0738132 0.026449 0.899708 -3.33743 -0.00579234 0.298892 -0.37038
126 1 0.575257 0.0764312 1.00139 0.599386 -3.3217 0.501916 -0.120809 -0.263618
131 1 0.625972 0.0486798 0.0250716 0.401749 -3.30009 -0.189023 0.23493 0.311903
211 1 0.624238 0.0998249 0.0250381 0.325978 -3.33158 0.0146059 0.0283667 -0.172184
136 1 0.650039 0.0742702 0.0238968 0.436581 -3.34095 -0.0853611 0.245423 0.546523
135 1 0.675648 0.0498999 0.0243667 0.45809 -3.21516 -0.0582014 0.317122 -0.258777
1734 1 0.674992 0.0774787 0.0505043 0.991618 -3.35405 -0.158907 -0.359585 -0.438747
140 1 0.699224 0.07681 0.023563 0.803872 -3.35395 0.156206 -0.231505 0.423305
139 1 0.722879 0.0491914 0.023456 0.638462 -3.31901 0.254278 0.153678 0.522224
141 1 0.750106 0.0484498 -0.00102625 0.45121 -3.3377 -0.0166971 0.223733 -0.0857028
144 1 0.748606 0.0732443 0.0247758 0.795728 -3.33475 -0.0389198 0.387574 0.0771551
1742 1 0.774739 0.0751028 0.0500506 0.283097 -3.37528 -0.0915964 -0.0530369 0.156349
145 1 0.79931 0.0495931 -0.000641969 0.49599 -3.32246 -0.191091 -0.150375 0.295318
148 1 0.800652 0.0759686 0.0267841 0.856144 -3.29096 -0.451342 -0.187363 -0.460424
225 1 0.79756 0.10205 0.00199653 2.4767 -3.30817 0.364934 -0.599906 -0.911835
227 1 0.824854 0.100135 0.023616 0.750697 -3.29492 0.489186 -0.117531 0.298605
1746 1 0.825386 0.074475 0.0493506 0.207339 -3.29533 0.178907 0.273186 0.304367
1825 1 0.801364 0.100353 0.0494612 0.396151 -3.32774 -0.236865 0.0134702 0.0355827
151 1 0.873967 0.0496467 0.0260146 0.228934 -3.26526 0.591259 -0.0654206 -0.0491132
152 1 0.850706 0.0733791 0.0261058 0.69468 -3.255 -0.682429 0.497256 -0.305775
1750 1 0.87562 0.0745477 0.0487442 0.866779 -3.28646 -0.2147 -0.291744 0.941241
150 1 0.874183 0.0752477 1.00249 0.90311 -3.30122 -0.0165127 -0.302682 -0.674664
155 1 0.923253 0.0498297 0.0253439 0.422141 -3.27545 0.239352 -0.20249 -0.185374
156 1 0.899794 0.0730368 0.0257782 0.610108 -3.21984 -0.185133 0.246926 0.0763651
235 1 0.923685 0.0974435 0.0235081 0.942148 -3.28859 0.330259 0.565539 0.365991
1754 1 0.925241 0.0753862 0.0501338 0.814969 -3.33661 -0.251733 -0.482311 0.275021
153 1 0.89846 0.0499216 -0.000360887 0.566515 -3.3458 -0.0469545 -0.0569039 0.163266
160 1 0.949193 0.0725792 0.0239833 0.733822 -3.30233 -0.142652 0.415145 0.228636
1758 1 0.974449 0.0754956 0.0504901 0.461858 -3.35466 -0.150754 -0.537175 0.109916
163 1 0.0243305 0.0998839 0.0265277 0.299585 -3.33236 0.00158974 -0.423886 0.1203
168 1 0.0476821 0.126205 0.0282028 1.44959 -3.31009 0.460542 -0.16969 -0.474011
1762 1 0.0239079 0.125198 0.0513439 0.351942 -3.33753 -0.125884 0.109627 0.136837
167 1 0.0741384 0.10081 0.0255489 0.636768 -3.29072 -0.262385 -0.16902 -0.135171
172 1 0.0997051 0.124047 0.0229325 1.18515 -3.26524 0.377208 0.374703 0.941139
171 1 0.126968 0.0994341 0.0261178 0.631202 -3.33302 -0.222572 0.0857792 -0.27709
176 1 0.15027 0.125312 0.0242732 0.177723 -3.30158 -0.210182 -0.0565008 0.0621032
251 1 0.124852 0.149936 0.0245776 0.222608 -3.33789 0.0291083 -0.325239 -0.085699
173 1 0.151222 0.0997227 -0.000360684 0.507763 -3.38326 -0.258122 -0.027004 0.00176125
170 1 0.124393 0.124833 0.000550781 0.285417 -3.30553 0.29318 -0.055631 -0.194937
175 1 0.174938 0.100013 0.0250747 0.232625 -3.32518 -0.166438 -0.0523822 -0.0531
179 1 0.223799 0.099921 0.0235331 0.871944 -3.34417 0.1425 0.0644068 0.417787
180 1 0.198632 0.12464 0.0262475 0.52454 -3.25201 0.27333 -0.118714 -0.483054
1774 1 0.174064 0.12551 0.0480231 1.24487 -3.30575 -0.0738058 -0.364548 0.825619
183 1 0.274493 0.101495 0.0248295 0.591843 -3.29664 -0.119936 -0.299356 0.00344792
184 1 0.249517 0.126216 0.025759 0.396952 -3.33653 0.11298 -0.161974 0.00527511
182 1 0.274799 0.125653 1.00099 0.205937 -3.32374 0.168592 0.0651306 -0.00768885
178 1 0.224804 0.124876 1.00145 0.490911 -3.33876 -0.203631 0.00301491 -0.460242
187 1 0.324368 0.0992044 0.0263896 0.450524 -3.24975 0.225807 0.222731 -0.719227
188 1 0.299582 0.126524 0.0260377 0.498057 -3.30409 -0.0423672 -0.0966895 -0.242024
1865 1 0.298729 0.151115 0.0517539 0.759109 -3.37244 0.190607 -0.265786 0.0612275
1786 1 0.324094 0.126155 0.049879 0.539422 -3.30287 0.254725 -0.0347022 0.162219
265 1 0.300868 0.151617 -0.00105906 0.86759 -3.28462 -0.43054 -0.290737 0.267497
186 1 0.322954 0.126243 0.000775226 0.762044 -3.34653 0.183909 -0.514905 -0.0954886
192 1 0.349694 0.124227 0.0251981 0.316859 -3.34086 0.0138626 0.214482 0.0980571
190 1 0.373758 0.122961 -0.000660441 1.19808 -3.29569 0.209078 0.847939 0.272375
195 1 0.424035 0.101695 0.0261189 0.702608 -3.28169 0.173463 -0.468513 -0.152919
196 1 0.399107 0.125176 0.0254988 0.378541 -3.26985 -0.101324 0.0535364 -0.152709
1873 1 0.401388 0.150342 0.0514399 0.762286 -3.31385 -0.585628 0.0951895 -0.118574
194 1 0.423188 0.127441 0.000961595 0.82364 -3.34441 0.574723 -0.00470996 -0.153475
1797 1 0.452026 0.100402 0.0514471 0.892521 -3.31981 -0.625439 -0.49817 -0.416541
199 1 0.477128 0.100839 0.0245992 1.12415 -3.2822 -0.775567 -0.0784282 0.0931242
1801 1 0.500414 0.100956 0.0517203 0.631156 -3.2292 -0.0856462 -0.403198 -0.496575
200 1 0.4506 0.123968 0.0259342 1.14691 -3.34207 -0.0404271 0.52708 -0.000501038
1798 1 0.475838 0.122941 0.0506577 0.900036 -3.26575 -0.00304132 0.835065 0.0920423
1805 1 0.548887 0.100764 0.0494649 0.395505 -3.3264 0.278311 -0.35004 0.195704
204 1 0.499786 0.124843 0.0239823 0.602051 -3.31213 -0.169395 0.407634 0.31824
283 1 0.524243 0.150023 0.024051 0.314084 -3.35294 -0.179178 0.167813 0.147038
1802 1 0.523908 0.124089 0.0503023 0.66827 -3.26912 0.415548 0.429702 -0.405974
208 1 0.551577 0.12594 0.021932 1.8697 -3.29004 -0.300097 -0.0936866 0.649279
207 1 0.575738 0.0995759 0.0248543 0.456487 -3.32251 -0.165558 0.276798 -0.114913
1809 1 0.598775 0.100553 0.0495596 0.40331 -3.29678 0.10025 -0.111842 0.173266
1806 1 0.572558 0.125556 0.0494599 0.930642 -3.36177 0.512102 0.185233 0.146243
212 1 0.600017 0.12498 0.0244872 0.214675 -3.331 -0.216688 -0.0109419 -0.129955
1813 1 0.649355 0.102288 0.0473145 1.73304 -3.26733 -0.149176 -0.421518 0.761338
291 1 0.62546 0.150213 0.0247246 0.228056 -3.31986 0.34553 -0.06728 -0.126668
1810 1 0.623274 0.124433 0.0510327 1.30944 -3.31052 0.451995 0.535884 -0.494562
216 1 0.649978 0.12572 0.0231632 0.509742 -3.31362 -0.354 0.0510888 0.287479
215 1 0.672972 0.101104 0.0246846 0.683161 -3.23355 0.34831 -0.574505 -0.337256
1817 1 0.700349 0.101338 0.0499197 0.46961 -3.29945 0.119661 -0.466772 0.00914226
217 1 0.699424 0.0999215 -0.00104879 0.271641 -3.35721 -0.0314319 0.0215121 -0.151
1814 1 0.674892 0.124615 0.04932 0.300205 -3.31784 -0.0485019 0.410913 0.428579
220 1 0.698305 0.1224 0.0254253 1.75657 -3.2829 0.422521 0.937427 -0.535675
219 1 0.724711 0.100419 0.0229308 0.900284 -3.33783 0.252065 -0.36405 0.248255
223 1 0.772718 0.100733 0.0250166 0.959987 -3.30531 0.359723 -0.16149 0.0436337
224 1 0.74833 0.125143 0.0244928 0.42041 -3.28784 0.149107 -0.0885413 0.28399
1901 1 0.749117 0.149713 0.0496572 0.292658 -3.3462 0.260097 -0.0823773 0.00405241
228 1 0.801322 0.123958 0.0242798 1.35162 -3.26925 -0.57073 0.724147 0.357613
307 1 0.825403 0.153116 0.0260314 2.09539 -3.29068 -0.223543 -0.939105 -0.135474
1826 1 0.825163 0.125444 0.0475621 0.804765 -3.34367 0.122003 0.0481316 0.416438
226 1 0.826452 0.12581 0.00104995 0.420446 -3.30584 -0.125182 -0.201062 -0.0547291
231 1 0.875005 0.0991148 0.0270346 0.463873 -3.23341 -0.107615 0.102982 -0.447318
229 1 0.851559 0.100732 1.00104 0.417955 -3.34359 -0.0636098 -0.191832 -0.0254042
232 1 0.851863 0.124932 0.0247272 0.57218 -3.31125 -0.491642 -0.0632946 0.410842
233 1 0.897294 0.0992346 0.00169713 0.951992 -3.30651 0.366872 0.390345 -0.622179
236 1 0.899532 0.123151 0.026111 0.466862 -3.36794 0.346627 0.408124 -0.102098
315 1 0.925627 0.148469 0.0249442 0.659129 -3.32469 -0.433343 -0.0984929 -0.0776394
239 1 0.974606 0.0966307 0.0257396 1.24725 -3.31805 -0.0464554 0.519943 -0.178753
1837 1 0.948344 0.098401 0.0496753 0.419342 -3.29373 0.559455 0.176102 0.112485
164 1 0.998919 0.121541 0.0260606 1.6604 -3.29164 -0.0342998 0.65864 -0.188888
240 1 0.948745 0.122784 0.0247571 0.557133 -3.35812 -0.0312958 -0.0699813 -0.257455
319 1 0.972294 0.148316 0.022866 1.3939 -3.33679 0.110539 0.151286 0.53032
243 1 0.0232782 0.150211 0.0248019 0.753008 -3.28486 0.136977 -0.331013 0.336994
248 1 0.0488311 0.173438 0.0257117 0.434058 -3.32208 0.352159 0.267297 0.0131559
244 1 0.998468 0.17447 0.0258583 0.448015 -3.27298 0.0365772 -0.11047 -0.422244
1925 1 0.0521009 0.198819 0.0503296 0.851032 -3.32188 -0.730447 0.364131 0.187325
247 1 0.0740696 0.149226 0.0266207 0.50445 -3.33351 0.0963788 0.0936971 -0.259784
252 1 0.0998402 0.173357 0.0240929 0.588224 -3.3424 0.115266 0.379125 0.349997
327 1 0.0748497 0.199414 0.0263777 0.39463 -3.3204 0.0528659 -0.24245 -0.426293
249 1 0.10049 0.150073 6.12425e-05 0.313055 -3.32187 -0.196073 -0.215157 0.193103
246 1 0.0750532 0.174959 1.00133 0.33377 -3.31066 -0.384871 -0.152691 0.114243
329 1 0.100721 0.198277 9.49958e-05 0.555437 -3.31154 -0.0506628 0.523146 0.465271
256 1 0.151749 0.17217 0.0268192 2.38631 -3.25358 -0.40249 0.831657 -0.703844
331 1 0.126197 0.198043 0.0252227 0.441522 -3.40309 -0.0706098 0.211243 0.152438
253 1 0.150804 0.149881 -0.000181146 0.363318 -3.33487 -0.0281499 0.126473 0.162139
250 1 0.12671 0.175312 0.000121226 0.988105 -3.2568 -0.135162 -0.481174 0.481047
255 1 0.175956 0.150465 0.0242761 0.69691 -3.2801 0.139905 -0.0659839 0.0387349
257 1 0.201269 0.150451 1.00169 0.903875 -3.33984 -0.545854 -0.0711893 -0.736134
260 1 0.201082 0.176661 0.0251629 0.980059 -3.36515 -0.402694 -0.412989 -0.133594
1854 1 0.175352 0.174879 0.0509919 0.514492 -3.25944 0.430714 -0.286646 -0.186768
337 1 0.199298 0.199927 -0.00133889 0.373325 -3.31659 0.540402 0.0120881 0.298667
254 1 0.174169 0.177335 -0.000616088 1.48024 -3.33272 0.169977 -0.906005 0.304602
259 1 0.223611 0.148054 0.0260028 1.13029 -3.26358 0.231893 0.747617 0.036416
1861 1 0.247216 0.151412 0.051356 1.65978 -3.254 1.00899 -1.08799 -0.385885
263 1 0.275933 0.151372 0.0247465 0.626063 -3.33964 -0.312729 -0.274994 0.105659
264 1 0.250267 0.175361 0.0233013 0.526769 -3.34215 -0.313958 -0.167258 0.191823
339 1 0.225951 0.199793 0.023962 0.292591 -3.30686 -0.33614 0.039549 -0.238957
1858 1 0.224504 0.173689 0.0502161 0.430945 -3.26498 -0.605401 0.586448 -0.191079
1941 1 0.247748 0.200627 0.0492873 1.02561 -3.3115 0.61653 -0.424307 -0.00480289
343 1 0.275247 0.200121 0.0238744 0.251806 -3.33128 -0.216667 -0.371741 -0.0594228
1862 1 0.273615 0.174547 0.0485135 0.849129 -3.31971 -0.0330035 0.272564 0.454849
262 1 0.27535 0.173692 -0.000787943 0.530607 -3.32977 0.000367622 0.479506 -0.12697
267 1 0.324927 0.150374 0.0249862 0.185493 -3.35461 0.21098 -0.0222543 0.171191
268 1 0.301817 0.174927 0.0273018 1.80563 -3.26929 -0.34152 0.00506432 -0.701229
1866 1 0.325057 0.175836 0.051765 0.646118 -3.31108 0.333768 -0.231643 -0.302256
271 1 0.375514 0.148511 0.0249685 0.747782 -3.33711 -0.392357 0.476787 0.0224772
272 1 0.350706 0.174433 0.0231789 1.01827 -3.35053 -0.0721618 0.0158767 0.499222
349 1 0.351527 0.200944 1.00071 0.590584 -3.34297 -0.231593 0.139797 -0.0641538
1870 1 0.374122 0.174243 0.0499967 0.661416 -3.31004 -0.0719628 -0.0956889 0.00859922
275 1 0.423683 0.150562 0.0259033 0.372651 -3.33998 0.123894 0.00646489 -0.189344
276 1 0.398982 0.175461 0.0267776 0.664742 -3.32284 0.350091 -0.220128 -0.224963
1953 1 0.399398 0.198959 0.0506763 0.782309 -3.31078 -0.071759 0.722512 0.0842214
355 1 0.425053 0.200652 0.0270172 0.897485 -3.28396 -0.640435 0.364515 -0.569561
279 1 0.474382 0.151408 0.0271258 1.16147 -3.35213 0.147013 -0.313187 -0.611241
280 1 0.446673 0.175491 0.025607 1.21489 -3.30722 0.538189 -0.222487 -0.258162
1957 1 0.449413 0.199989 0.0491909 0.519722 -3.20947 0.0352301 0.404725 0.799232
1878 1 0.473978 0.175506 0.0494924 0.526582 -3.33862 0.349917 0.161455 0.177029
284 1 0.500527 0.177102 0.0250382 1.11279 -3.34585 -0.410992 -0.45374 0.178642
359 1 0.472674 0.201633 0.026526 1.21513 -3.25906 0.585995 -0.477556 -0.582985
1881 1 0.499715 0.148597 0.0508383 0.655299 -3.32039 -0.0552298 0.326302 -0.458587
1885 1 0.54726 0.150915 0.0487881 0.932733 -3.32092 0.642734 -0.113351 -0.174978
1961 1 0.500241 0.202785 0.0494209 0.899375 -3.28392 -0.09573 -0.468386 -0.205926
1882 1 0.52348 0.176434 0.0494317 0.588087 -3.30982 0.290361 -0.0710403 -0.157235
288 1 0.54839 0.17538 0.0235608 0.286239 -3.33961 -0.101712 -0.388335 0.227355
287 1 0.575727 0.14969 0.0251142 1.05328 -3.31001 -0.494657 0.325161 -0.282559
1889 1 0.601132 0.150469 0.0477953 1.52033 -3.2894 -0.290172 -0.139176 0.887249
367 1 0.572424 0.198826 0.0235995 1.32779 -3.28024 0.69323 -0.0854952 0.445794
1886 1 0.573881 0.175557 0.0493469 0.405123 -3.36228 0.286186 0.0367095 -0.354824
292 1 0.601206 0.174079 0.0246249 0.834162 -3.3086 -0.409218 0.515442 0.0693027
1969 1 0.599355 0.202699 0.0496751 1.52834 -3.37559 -0.168716 -0.501265 0.255859
1893 1 0.651049 0.150087 0.0496335 0.443649 -3.37994 -0.534457 0.0228312 0.0644656
371 1 0.624494 0.200178 0.0270928 0.73699 -3.32823 -0.0909645 0.0122 -0.277275
1890 1 0.624634 0.175277 0.0528676 1.4197 -3.34377 0.237264 0.00180801 -0.706433
296 1 0.650369 0.177059 0.0253572 0.948001 -3.27497 -0.449096 -0.51831 0.481691
295 1 0.673382 0.150321 0.0242426 0.44634 -3.32604 0.392066 -0.193777 0.135331
1897 1 0.701385 0.149086 0.0486046 1.13576 -3.32645 -0.719094 0.194584 0.43051
1894 1 0.676315 0.175401 0.0507491 0.510144 -3.34508 -0.319454 -0.0742731 -0.152427
300 1 0.699354 0.174696 0.0240413 0.507343 -3.32346 0.483113 0.0567228 0.367117
299 1 0.723988 0.149091 0.0252188 0.290604 -3.28946 -0.00367296 0.133559 -0.346424
303 1 0.775968 0.147368 0.024545 1.53631 -3.34643 -0.260216 0.484279 0.27771
1898 1 0.726111 0.174792 0.050918 0.611968 -3.32011 -0.26585 0.0775923 -0.0758736
304 1 0.748791 0.173711 0.0246834 0.366347 -3.36859 0.220029 0.1153 -0.183762
1981 1 0.748524 0.201308 0.049108 1.04582 -3.29601 0.245051 0.0472865 0.646942
1902 1 0.773051 0.176146 0.0497041 1.11227 -3.32646 0.148997 -0.448399 -0.183863
305 1 0.802347 0.149141 -0.000877539 0.984332 -3.30334 -0.6516 0.0346592 0.448076
308 1 0.798148 0.17358 0.0243205 0.998282 -3.36143 0.0857532 0.293478 0.0855348
1906 1 0.825954 0.174811 0.050192 0.527439 -3.32277 -0.217738 0.346877 0.105318
311 1 0.874989 0.149337 0.0255172 0.2044 -3.29171 0.43599 0.227206 0.275097
309 1 0.850885 0.151115 1.00262 0.560747 -3.28211 -0.0178055 -0.314593 -0.555486
312 1 0.851101 0.175781 0.0258 0.269058 -3.23917 -0.198654 -0.135334 0.0730375
1910 1 0.874605 0.174607 0.0505199 0.121043 -3.31378 0.117389 -0.277819 0.24358
310 1 0.874574 0.175913 0.00124581 0.333794 -3.2609 0.623661 -0.133471 0.0112983
1913 1 0.899372 0.14896 0.0501201 0.231765 -3.36112 0.0383465 -0.0774459 0.12538
314 1 0.923586 0.174263 -0.00126338 0.675901 -3.22506 -0.272325 0.43157 0.799154
316 1 0.899253 0.174353 0.026015 0.189581 -3.34455 0.239307 0.0248631 -0.268369
320 1 0.948387 0.174336 0.0234869 0.390643 -3.34577 0.164311 0.244558 0.301591
318 1 0.973917 0.174889 1.00045 0.275163 -3.32814 -0.160009 -0.219286 -0.282807
397 1 0.947838 0.199639 0.999903 0.906239 -3.30392 0.419451 -0.291395 0.188932
323 1 0.0251101 0.197704 0.0250993 0.722845 -3.33808 -0.273245 0.497351 0.263937
325 1 0.0468638 0.198357 0.000429036 1.32881 -3.30634 0.784308 0.20858 0.109192
328 1 0.0494105 0.223954 0.0252515 0.253212 -3.31462 0.276765 -0.102241 0.0298526
403 1 0.0268748 0.24932 0.0259578 0.478379 -3.29165 -0.211871 0.425679 -0.0607677
322 1 0.0248942 0.224807 1.00086 0.231967 -3.29654 0.151978 -0.148199 -0.137865
321 1 -0.00101934 0.198786 0.000348226 0.286574 -3.30077 0.754758 0.148817 -0.0968037
332 1 0.0988584 0.223542 0.0254329 0.494052 -3.32852 0.488034 0.146624 -0.175274
326 1 0.074241 0.221874 1.00144 1.31454 -3.31812 -0.0523779 0.42633 -0.0439796
336 1 0.150733 0.22433 0.0255182 0.355512 -3.30464 -0.332793 -0.227037 -0.186817
2013 1 0.149594 0.247871 0.0497138 0.522373 -3.30262 0.215205 0.461535 0.335162
330 1 0.12434 0.224532 1.00104 0.308417 -3.36308 -0.103946 0.0067884 -0.150798
333 1 0.148369 0.199503 -0.00178627 1.60054 -3.22887 0.39764 0.228456 0.759905
335 1 0.17343 0.200303 0.0249204 0.73883 -3.32263 0.348327 -0.333428 -0.119503
1937 1 0.199808 0.200098 0.0490205 0.702178 -3.32335 0.381632 0.0515558 -0.0414372
340 1 0.199796 0.224877 0.0243589 0.118544 -3.35165 0.0517019 -0.225052 0.117164
344 1 0.249628 0.223743 0.0231018 0.385094 -3.30993 0.0438496 0.146435 0.103193
419 1 0.225844 0.248829 0.0245417 0.473626 -3.3132 -0.383776 0.217445 -0.0461425
1938 1 0.22486 0.225158 0.0493401 0.36291 -3.31543 -0.232262 -0.0366111 0.0407523
2021 1 0.25134 0.249248 0.0480972 0.893312 -3.27571 -0.486266 -0.0174941 0.245664
421 1 0.248747 0.249702 0.999146 0.218736 -3.3129 0.338322 -0.123745 0.0879681
423 1 0.273979 0.249188 0.0242122 0.173656 -3.31216 0.145288 0.144767 -0.503726
1945 1 0.299366 0.199592 0.0481692 0.60582 -3.26936 0.316449 0.223049 0.242143
347 1 0.325416 0.200411 0.0239419 0.388503 -3.34605 0.215085 0.0194148 0.413274
348 1 0.299705 0.224949 0.0237477 0.178969 -3.28869 0.243873 0.0389598 -0.0162637
427 1 0.325625 0.249269 0.0229629 1.21134 -3.25312 -1.01949 0.496724 0.41667
1946 1 0.324334 0.22618 0.049416 0.351656 -3.38629 0.0148988 -0.200684 0.190445
425 1 0.298564 0.249464 -0.00149258 0.285393 -3.37567 0.178061 0.0393944 0.16983
351 1 0.376096 0.200544 0.0258978 0.633132 -3.28708 -0.511767 0.357744 0.0899133
352 1 0.348973 0.227598 0.0250072 0.96597 -3.27489 0.515854 -0.85457 -0.17772
431 1 0.375703 0.252269 0.0274267 1.16416 -3.32267 -0.303193 0.311449 -0.523058
1950 1 0.373939 0.226658 0.0483921 1.68069 -3.31962 0.407917 -0.459657 0.573794
356 1 0.400256 0.228541 0.0246332 1.274 -3.32818 0.170976 -0.486517 0.417733
1954 1 0.424908 0.225753 0.050614 0.229746 -3.36741 -0.239041 -0.0763352 -0.231826
360 1 0.449248 0.225029 0.0239201 0.420195 -3.31574 0.0255746 0.496574 0.12715
364 1 0.499687 0.226589 0.0249327 0.459468 -3.31478 -0.283745 -0.259068 0.060187
1958 1 0.474977 0.226154 0.0487428 0.547323 -3.33031 -0.169814 0.353606 0.284568
363 1 0.525665 0.20168 0.0237149 0.756937 -3.29449 -0.369695 -0.44643 0.471074
1965 1 0.551084 0.202728 0.0500687 1.60241 -3.331 -0.433887 -0.462134 0.0180689
2041 1 0.499292 0.252126 0.0529336 1.64504 -3.31006 0.117649 -0.429259 -0.823484
1962 1 0.52439 0.227044 0.050471 0.709867 -3.34046 -0.0430828 -0.386628 0.000304699
368 1 0.54988 0.223864 0.0240666 0.762067 -3.25815 -0.0553619 0.643441 0.516732
365 1 0.548719 0.19927 -0.00186137 0.544693 -3.24949 0.133207 0.174324 0.0595169
1966 1 0.574755 0.226716 0.0517293 0.671205 -3.28512 0.14719 -0.136119 -0.312523
372 1 0.598834 0.226454 0.0253661 0.443815 -3.33257 -0.103977 -0.303828 0.273523
1973 1 0.649443 0.200564 0.051352 0.467666 -3.35122 0.111011 -0.337394 -0.265556
1970 1 0.625011 0.22711 0.0516747 0.964766 -3.26551 -0.291123 -0.360813 -0.794857
376 1 0.649615 0.223839 0.0246264 0.667492 -3.32344 -0.114373 0.181336 0.229648
375 1 0.675448 0.198924 0.0248684 0.402048 -3.32554 0.284645 0.655033 0.170767
377 1 0.700637 0.199997 -0.000811549 0.430222 -3.32696 -0.295042 0.0112962 0.326279
380 1 0.702685 0.224749 0.0235088 1.68836 -3.31776 -0.623868 0.205785 0.462853
379 1 0.725308 0.200575 0.0264295 0.860322 -3.25451 -0.322496 -0.607075 -0.587916
383 1 0.773805 0.198854 0.0243835 0.394785 -3.30794 0.0421353 0.0565196 0.133798
1978 1 0.724232 0.226812 0.0523731 1.40069 -3.28358 0.208143 -0.397114 -0.314005
384 1 0.748034 0.224939 0.0237315 0.930353 -3.31035 0.503045 0.18698 0.351384
1982 1 0.775835 0.224992 0.0475367 1.08603 -3.29021 -0.585893 -0.251372 0.414901
382 1 0.776005 0.225312 1.00049 1.08812 -3.31901 -0.496436 -0.126502 -0.26162
387 1 0.82578 0.199306 0.0253504 0.200955 -3.33951 -0.122253 -0.0505887 -0.2783
1985 1 0.800763 0.199145 0.0492607 0.277459 -3.334 -0.125999 0.0162155 0.0168742
388 1 0.80028 0.222925 0.0249012 0.773215 -3.30333 0.216112 0.395383 -0.308706
385 1 0.798867 0.198518 0.000554381 0.537562 -3.35183 0.493713 -0.0335419 -0.134062