ITEM: TIMESTEP
17500
ITEM: NUMBER OF ATOMS
32000
ITEM: BOX BOUNDS pp pp pp
6.9718808303145705e+00 7.4028119169685482e+01
-3.5016620386183988e+00 8.4501662038618690e+01
-5.2298749816580212e+00 8.6229874981657446e+01
ITEM: ATOMS id type xs ys zs c_csym c_peratom fx fy fz
4 1 0.00615875 0.0353031 0.0310248 4.03981 -3.36246 0.360397 0.0651682 -0.020547
8 1 0.0485033 0.0280557 0.0306466 1.11897 -3.27913 -0.227672 -0.136797 -0.283168
2 1 0.0223716 0.0237539 0.00177028 1.09571 -3.26854 0.00292461 -0.119248 -0.0364583
85 1 0.0463356 0.0481843 0.00820135 6.60702 -3.18215 1.05669 -0.0104902 -0.202267
12 1 0.0889701 0.0231605 0.0248005 0.287973 -3.3266 -0.0434496 -0.163243 0.0587009
91 1 0.116167 0.048117 0.0259943 0.306454 -3.30886 -0.0059023 0.124467 0.199725
6 1 0.0645682 0.0201131 1.00064 0.735544 -3.36856 -0.221195 -0.0668679 -0.125552
89 1 0.0893605 0.0476098 1.00312 1.97623 -3.29279 -0.283079 -0.760529 -0.192757
16 1 0.130187 0.0177726 0.0205889 0.461982 -3.32153 0.305605 -0.192521 0.379181
1614 1 0.158877 0.0183089 0.0443376 0.865089 -3.34135 -0.36249 0.103481 -0.335753
95 1 0.156896 0.0426963 0.0216596 0.722202 -3.34959 0.226359 -0.0955763 0.22122
20 1 0.17506 0.0150354 0.0140611 2.76642 -3.23867 -0.812853 -0.859202 0.600675
99 1 0.200017 0.038248 0.0188161 0.594969 -3.27418 0.29173 0.12557 -0.262809
24 1 0.213338 0.00808528 0.0122655 8.67388 -3.29044 0.715294 -0.639791 0.183473
1618 1 0.200504 0.0146133 0.0402177 0.537855 -3.2946 0.0523462 -0.134397 0.143308
1701 1 0.225144 0.0394936 0.0423895 1.27196 -3.2854 0.489629 -0.317227 0.185826
1622 1 0.242576 0.00724334 0.0388581 6.6638 -3.32284 -0.521928 -0.298006 -0.475011
103 1 0.245145 0.029412 0.0160708 8.3283 -3.27376 -1.01061 0.367895 -0.0798983
28 1 0.274489 0.00761814 0.0201806 0.899919 -3.25354 0.28347 0.172785 -0.604982
1705 1 0.267877 0.032337 0.0396988 7.74914 -3.29144 0.331649 0.142024 0.182554
1626 1 0.299541 0.0107916 0.0430191 0.997729 -3.26329 0.789199 -0.302814 -0.102427
1709 1 0.304998 0.0330209 0.0204764 1.09722 -3.33331 -0.365728 -0.208512 0.174927
1630 1 0.337311 0.0108941 0.0231401 1.09434 -3.26235 -0.671521 0.0244057 0.324206
1713 1 0.362572 0.0358315 0.0258874 0.364766 -3.30079 0.163491 0.391891 0.302545
1711 1 0.32711 0.0363479 0.046181 2.27214 -3.26661 0.690256 -0.651353 -0.58258
1636 1 0.361451 0.0125816 0.0472659 0.472201 -3.2996 -0.40173 0.179077 0.607253
115 1 0.395846 0.0388283 0.00399632 0.783076 -3.2969 -0.359754 0.0641205 -0.111008
1634 1 0.393213 0.0141164 0.0301156 1.81277 -3.24037 0.161879 0.233856 -0.897096
40 1 0.424235 0.0175998 0.00781151 0.899329 -3.29354 0.347369 -0.143721 -0.294427
1717 1 0.418512 0.0407223 0.0286034 0.526328 -3.30301 0.0994049 -0.0247717 0.312703
1638 1 0.452403 0.0184087 0.0300887 0.588386 -3.31374 0.0357401 0.316118 0.310585
44 1 0.482823 0.022384 0.0100904 0.746723 -3.3315 -0.078644 0.138738 -0.33566
119 1 0.448692 0.0429503 0.00844505 1.29385 -3.31197 0.222098 -0.148856 -0.425738
1721 1 0.478522 0.0479733 0.0301986 1.78195 -3.36679 -0.013213 -0.405074 0.299095
1642 1 0.509323 0.0251817 0.0326996 6.4713 -3.25694 -0.230644 -0.457275 0.0419332
48 1 0.541002 0.0257378 0.0121575 0.77889 -3.2563 -0.345698 -0.626427 0.334382
1645 1 0.536039 0.999987 0.0365387 7.29644 -3.3285 0.278349 0.231687 0.0609257
43 1 0.514751 1.00001 0.0113644 0.604479 -3.30511 0.00631022 0.062003 -0.14104
123 1 0.510437 0.0463786 0.00983951 0.987695 -3.28285 -0.742734 0.332602 -0.214955
52 1 0.596378 0.0288221 0.0172864 0.526933 -3.30701 -0.036431 0.0491597 -0.114555
47 1 0.568239 0.00257802 0.015855 1.64791 -3.32037 0.450014 0.319559 -0.0845914
1646 1 0.566576 0.024578 0.0375581 1.43176 -3.34966 -0.442914 0.683267 0.21579
1649 1 0.597836 0.00541268 0.0398754 0.381378 -3.31454 0.136475 0.230972 0.0866543
1650 1 0.624181 0.0326056 0.041145 0.742299 -3.28343 0.057263 -0.148739 0.474281
51 1 0.630723 0.0117616 0.0203134 3.12185 -3.26699 -0.474347 -0.844439 -0.664746
56 1 0.658413 0.0338471 0.0213004 1.23765 -3.27273 -0.387583 0.4214 -0.141351
1653 1 0.654286 0.00955195 0.043172 1.30032 -3.26753 0.215541 0.0857971 0.608656
55 1 0.686668 0.0130341 0.0251074 0.77556 -3.26471 0.238533 -0.175539 -0.76799
54 1 0.689087 0.0370003 0.00146293 0.441319 -3.32873 0.238454 0.203261 0.485893
60 1 0.715994 0.0372829 0.0258217 0.523445 -3.30067 -0.632077 0.322265 0.15024
57 1 0.720299 0.0150969 0.004136 0.565932 -3.22297 -0.0230034 -0.0011545 0.931834
58 1 0.746515 0.0383969 0.00790076 2.70291 -3.24813 0.873008 1.04922 -0.178846
59 1 0.748817 0.015982 0.0278123 0.624986 -3.30362 -0.206469 0.228751 0.51972
64 1 0.779088 0.0419402 0.0322647 1.57135 -3.2892 -0.398211 0.466541 -0.562866
61 1 0.782819 0.0204046 0.00947253 0.755632 -3.32011 -0.343516 -0.0565058 0.257594
63 1 0.809007 0.0204555 0.0370861 2.80898 -3.21137 -0.269016 -0.267141 -0.859064
62 1 0.808266 0.0452954 0.0116531 0.602789 -3.29429 0.34112 -0.0646332 0.302148
68 1 0.832961 0.0445928 0.0377499 3.77225 -3.26884 0.846533 0.840613 -0.655504
65 1 0.839745 0.025259 0.0145088 0.716538 -3.36462 0.345943 -0.142497 -0.0694335
66 1 0.867477 0.0513044 0.0178236 0.91171 -3.34581 0.0667333 -0.710463 -0.255264
67 1 0.87233 0.0265612 0.0392985 6.53894 -3.26931 -0.751998 -0.401816 -0.323525
1586 1 0.872348 0.00284329 0.017246 6.96572 -3.34731 0.231098 -0.0646138 -0.254301
69 1 0.901138 0.0268434 0.0197209 7.65602 -3.28859 0.134471 0.0821497 -0.158936
73 1 0.941364 0.0168539 0.0282624 6.03363 -3.21514 -0.732049 -0.0547237 -0.301097
71 1 0.911336 0.0180242 0.0493811 1.3792 -3.30893 0.33677 0.240897 -0.316862
78 1 0.978896 0.0283825 0.00202083 1.0316 -3.24768 -0.029582 0.0492157 -0.11851
74 1 0.965714 0.0408622 0.0270493 6.77561 -3.1808 0.0114766 0.361596 0.169292
79 1 0.979843 0.00974767 0.0273615 2.96213 -3.27037 0.34621 -0.401285 0.195511
77 1 0.947787 0.00121623 1.00132 7.15992 -3.3324 0.184883 0.37539 0.0820094
83 1 0.035226 0.0598289 0.0359419 7.65196 -3.29179 -0.394493 0.0880425 0.277544
81 1 0.0100376 0.0522746 -0.000278034 7.71551 -3.23068 -1.12975 0.498056 0.153898
82 1 0.0327442 0.0763124 0.0092435 5.87082 -3.17046 -0.088246 0.350181 -0.399545
158 1 0.0203517 0.090642 0.0324802 9.9753 -3.23272 0.191333 0.302761 0.461923
88 1 0.0632317 0.0884142 0.0413431 12.2235 -3.31823 -0.325508 -0.438671 0.105207
87 1 0.0740588 0.0544206 0.0320708 0.949541 -3.28499 0.39211 0.0181582 0.203083
92 1 0.104086 0.0797332 0.0346997 1.50345 -3.31522 -0.458202 0.0565473 -0.227112
86 1 0.0759 0.0756069 0.00988739 1.15336 -3.2034 -0.17936 -0.310652 -0.0622448
90 1 0.11517 0.0722169 0.00455746 2.16069 -3.28605 0.686487 -0.365382 -0.156511
96 1 0.143638 0.073738 0.0277495 0.776949 -3.29682 0.0562993 -0.262923 0.392745
100 1 0.18547 0.0667313 0.0246649 0.477115 -3.25928 0.326118 0.00339537 0.442406
94 1 0.16109 0.0663953 1.00226 1.54208 -3.28456 -0.29949 -0.077447 -1.03426
173 1 0.14633 0.0958815 0.00603806 0.54384 -3.32662 0.065664 0.00225305 -0.255979
104 1 0.229821 0.0612786 0.0214182 0.431064 -3.34372 -0.0419209 0.239695 -0.180375
179 1 0.215425 0.091915 0.0282439 0.409219 -3.28364 -0.211739 -0.0342383 -0.300393
183 1 0.258453 0.088825 0.0230682 1.65922 -3.28796 0.167374 -0.451265 0.462266
1702 1 0.254674 0.0627949 0.0462499 0.585529 -3.31654 -0.037946 0.183331 -0.15945
1785 1 0.285107 0.0853347 0.0473498 3.70551 -3.19506 -0.82673 0.320101 0.0333374
1706 1 0.27034 0.0557007 0.0171472 7.12719 -3.34127 0.266917 0.37038 0.431056
1712 1 0.295715 0.0554688 0.0428647 7.63642 -3.3269 0.200696 0.047807 -0.243721
1789 1 0.299976 0.0803666 0.0203458 6.50678 -3.31925 -0.252601 -0.32677 -0.410096
1710 1 0.330409 0.0580995 0.0218701 0.51424 -3.35878 0.0396521 -0.00478323 0.24896
1793 1 0.357285 0.0819502 0.0244707 0.856794 -3.30787 -0.343887 0.408394 0.210302
116 1 0.364836 0.0597263 0.00190938 0.894773 -3.32114 -0.309248 -0.0107831 -0.169304
1791 1 0.322787 0.0809174 0.0457251 6.51748 -3.23383 0.807258 -0.646709 -0.482838
1716 1 0.356427 0.0587018 0.0478075 0.424321 -3.34933 -0.0941386 0.0829093 -0.271918
195 1 0.388115 0.0866044 0.00487434 0.976986 -3.33166 0.274367 -0.103925 -0.198295
1714 1 0.388122 0.0619319 0.0254609 0.505636 -3.29904 0.296553 0.0485122 0.365936
120 1 0.419264 0.0645666 0.0024536 1.68338 -3.30656 -0.609056 0.143893 0.548909
1797 1 0.413127 0.0898849 0.0288293 1.26982 -3.33811 -0.0537021 -0.366188 -0.36122
1718 1 0.444031 0.0659021 0.0286445 0.920607 -3.3481 0.0961513 0.368536 0.313126
199 1 0.445589 0.0891449 0.00678039 0.562159 -3.29822 -0.552868 0.330189 0.0470766
124 1 0.47673 0.0691384 0.00706077 0.926892 -3.28904 0.410145 -0.185743 0.47239
1801 1 0.47088 0.0911192 0.0310631 0.539809 -3.32525 -0.0209577 -0.0201804 0.0604433
1725 1 0.532525 0.0497957 0.0343202 1.17316 -3.23886 0.873835 -0.138898 0.071981
1722 1 0.505416 0.0718691 0.0314377 1.36394 -3.29093 -0.353053 -0.193355 0.0400975
128 1 0.537252 0.0719017 0.0108229 1.73696 -3.26813 -0.724334 0.303638 0.272456
1726 1 0.560571 0.0735901 0.0357162 0.862636 -3.3251 0.016627 -0.128168 0.530285
203 1 0.503427 0.0946655 0.0123204 1.1641 -3.37637 0.344605 0.181851 -0.653746
1805 1 0.530706 0.0978048 0.038117 3.3163 -3.23205 0.111555 0.14482 -1.1319
127 1 0.564325 0.0493895 0.0143331 1.02585 -3.23545 0.841959 0.458234 0.462145
132 1 0.592439 0.0744796 0.0171321 0.851448 -3.35136 -0.12862 0.387018 0.0847598
1729 1 0.592149 0.0520385 0.0396591 0.296797 -3.35621 -0.264121 0.209985 0.0288253
1730 1 0.620559 0.0800519 0.0425666 1.73592 -3.31491 -0.385384 -0.528329 -0.488373
131 1 0.623358 0.0532755 0.0184028 1.18048 -3.33706 0.169142 0.301397 0.131417
136 1 0.650909 0.0812869 0.0205008 0.615442 -3.28149 -0.0855853 -0.318406 0.637649
135 1 0.681628 0.0611757 0.0253045 1.34227 -3.34566 0.596111 -0.395392 -0.388771
1733 1 0.650075 0.0571631 0.0433979 0.341591 -3.35286 -0.0765434 0.0715942 0.244166
133 1 0.65587 0.0573118 1.00024 0.391438 -3.35285 0.244923 0.130264 -0.214779
134 1 0.683159 0.0849732 0.00315984 0.712411 -3.24979 0.345524 -0.716508 -0.111888
140 1 0.710787 0.0848091 0.0261201 0.302557 -3.35671 -0.187992 -0.0975044 0.435045
137 1 0.715438 0.0629115 0.00388335 0.436102 -3.37368 0.140132 -0.119162 0.268085
139 1 0.744731 0.0645314 0.0265488 1.4173 -3.35656 -0.11262 -0.453585 0.161444
138 1 0.743954 0.087684 0.00646506 0.317012 -3.34227 0.113114 -0.144396 -0.19371
144 1 0.772937 0.0876759 0.0315215 1.28956 -3.30335 -0.133112 0.41902 -0.40182
141 1 0.779681 0.066556 0.00903064 1.25222 -3.28463 -0.872511 0.0285933 0.150863
143 1 0.806914 0.0699875 0.0328979 2.37271 -3.23073 -1.07558 -0.900039 0.0581338
142 1 0.802755 0.093781 0.00915297 2.25771 -3.35467 0.063327 -0.324121 0.169755
145 1 0.835522 0.071349 0.0136936 0.351679 -3.25813 0.176491 -0.047377 -0.169818
148 1 0.831377 0.0927388 0.0350479 0.638196 -3.26308 0.071965 0.959217 0.222181
147 1 0.862407 0.0723516 0.0381594 0.443004 -3.28956 -0.042076 0.00850674 0.145941
146 1 0.862098 0.0982112 0.0167053 0.753619 -3.28171 0.669632 -0.295607 -0.227013
72 1 0.896429 0.0509491 0.0396086 6.89747 -3.29737 0.356474 0.138083 -0.173647
70 1 0.927348 0.0525719 0.019395 7.20903 -3.25236 -0.0500483 0.562526 0.386239
152 1 0.889235 0.0981087 0.0395225 0.961209 -3.28972 0.351823 -0.242623 0.05286
149 1 0.893452 0.0772598 0.0184485 1.1177 -3.31263 0.421862 -0.40166 -0.0485315
151 1 0.924143 0.0762806 0.0403626 7.46587 -3.33578 -0.300109 -0.120956 0.479076
153 1 0.956697 0.077002 0.0239322 7.3606 -3.20363 -0.135896 0.579938 -0.307621
157 1 0.992896 0.0673498 0.0286138 8.28895 -3.24524 0.510776 -0.685646 0.0476285
30555 1 0.99235 0.0831894 0.0035468 6.74325 -3.26027 -0.311961 -0.428776 0.193775
30560 1 0.01561 0.107178 0.0071455 7.9187 -3.23132 0.351611 -0.0302788 -0.243266
161 1 0.0454799 0.119584 0.0350135 5.04391 -3.21979 0.201283 0.00326394 0.548559
30639 1 0.0399538 0.131166 0.00794688 10.3084 -3.20241 0.668257 0.403969 -0.534945
237 1 0.00936016 0.130711 0.0263229 6.85734 -3.25969 -0.518603 0.184279 0.205732
165 1 0.0575817 0.100996 0.0137636 9.26072 -3.20264 -0.165449 0.511304 -0.475101
167 1 0.0873226 0.112776 0.0360587 6.89079 -3.2994 0.314631 -0.212402 0.407328
166 1 0.080312 0.12774 0.00937364 8.23916 -3.2744 0.027045 -0.0269294 -0.0694189
169 1 0.102474 0.101278 0.00806792 2.9333 -3.31322 -0.0176881 -0.249328 0.443618
172 1 0.116854 0.135794 0.0383041 3.99728 -3.24795 -0.0954968 -0.451262 0.925517
171 1 0.131775 0.103635 0.0340235 0.662757 -3.30361 -0.175837 -0.0584189 0.322648
170 1 0.112521 0.123543 0.990034 6.67123 -3.2158 -0.320412 -0.0800739 -0.615451
162 1 0.0751975 0.143887 0.0371041 3.98628 -3.28331 0.0957901 0.0617648 -0.543875
175 1 0.173736 0.0962035 0.0317313 0.648629 -3.34088 -0.159706 0.341859 -0.229377
176 1 0.133645 0.12464 0.0138183 3.29251 -3.19713 0.670911 -0.0346052 -0.129561
180 1 0.178423 0.119258 0.00744557 2.12845 -3.30355 -0.70828 0.014607 0.660967
1774 1 0.160362 0.128544 0.0394013 1.3248 -3.28292 -0.596716 0.25692 -0.49504
184 1 0.218014 0.116454 0.00693315 1.3049 -3.21129 -0.254137 -0.307691 -0.855079
1778 1 0.198585 0.122457 0.0344691 1.55972 -3.29189 0.434237 0.0276299 -0.223654
1782 1 0.239114 0.117618 0.0298881 2.1728 -3.23606 1.06253 0.255068 0.497274
188 1 0.258966 0.110811 0.00172395 0.585147 -3.30621 0.195924 0.15484 -0.307559
1786 1 0.2858 0.112262 0.0235791 2.00003 -3.2751 0.221433 -0.0318974 0.127235
267 1 0.287938 0.135736 0.00309129 1.3303 -3.30289 -0.72024 -0.295736 -0.814667
1869 1 0.311386 0.143102 0.0245404 2.73752 -3.17676 0.205988 0.536255 -0.315706
1790 1 0.327021 0.104883 0.0195637 7.45568 -3.28237 -0.0626652 0.268583 0.722097
1873 1 0.349622 0.131863 0.0233958 5.94523 -3.3254 0.169682 -0.124109 -0.10019
1796 1 0.348215 0.106667 0.0466465 0.93303 -3.28673 0.0327422 -0.17688 -0.430138
1794 1 0.380247 0.110285 0.0289311 2.06781 -3.25571 -0.100362 -0.431916 -0.436915
275 1 0.382602 0.135265 0.00342026 1.61565 -3.2497 -0.366185 -0.867475 -0.442801
200 1 0.413604 0.11214 0.00398565 0.743386 -3.20395 -0.804034 -0.946671 0.297497
1877 1 0.406116 0.133613 0.0276603 1.2163 -3.28708 0.291036 0.45851 0.202482
1798 1 0.441099 0.112806 0.0280385 1.16297 -3.28739 -0.262427 0.320061 0.48529
279 1 0.43557 0.134911 0.00586315 2.29145 -3.20975 1.02801 1.02852 0.0762839
204 1 0.471226 0.115245 0.00919824 0.327071 -3.33406 0.178959 0.293271 -0.49672
1881 1 0.465917 0.140421 0.0311066 1.28308 -3.31159 -0.139732 -0.594856 0.0325169
283 1 0.497313 0.140697 0.010245 0.252925 -3.3237 0.125632 0.0928814 0.00877365
1802 1 0.497103 0.118158 0.0340099 0.551806 -3.3895 0.00264897 0.0256614 -0.0555463
208 1 0.52926 0.12086 0.011127 0.975825 -3.31016 -0.107259 -0.559033 0.378017
1806 1 0.557228 0.122777 0.036716 1.23711 -3.35262 -0.0957145 -0.126671 0.120013
207 1 0.559481 0.0974055 0.0157925 1.39212 -3.35046 0.252078 0.292373 -0.363535
1885 1 0.524838 0.142793 0.0345716 0.388211 -3.32068 -0.392462 -0.235448 -0.0242858
1809 1 0.585915 0.0985575 0.0387683 0.829764 -3.33066 0.584402 0.112379 -0.221554
211 1 0.619301 0.100231 0.0176577 1.21693 -3.29163 -0.339133 0.390667 0.738997
212 1 0.586762 0.122946 0.0147873 1.5057 -3.25471 -0.104704 -0.550295 0.835679
1810 1 0.611873 0.123862 0.0408276 1.151 -3.30642 -0.0417098 -0.119957 0.241352
215 1 0.677114 0.107204 0.0242349 0.50227 -3.35018 0.0703394 -0.20897 0.284541
1813 1 0.64506 0.104646 0.0428288 0.719413 -3.35178 0.170225 -0.0667878 0.312258
216 1 0.641876 0.128046 0.022608 1.67214 -3.24307 1.01508 -0.276804 0.140843
1814 1 0.671576 0.130227 0.0459376 0.586054 -3.22568 0.3426 -0.186614 -0.306531
214 1 0.675892 0.129841 0.00354714 0.86728 -3.34095 0.568179 -0.106861 -0.278304
220 1 0.704073 0.130561 0.029766 3.13689 -3.27937 0.0675085 -0.0369672 -0.900159
217 1 0.71005 0.108678 0.00487079 0.256788 -3.32623 0.0682364 0.201876 0.107153
219 1 0.736532 0.109018 0.0286609 0.630381 -3.30232 0.133638 -0.102793 0.0316856
218 1 0.736434 0.132073 0.00699791 1.00273 -3.30505 -0.0220608 0.375987 -0.194513
224 1 0.764189 0.133842 0.0300442 0.506414 -3.29533 0.555839 0.393575 -0.0609674
221 1 0.76933 0.112325 0.0096627 0.97568 -3.334 0.394709 -0.214568 -0.352203
223 1 0.799756 0.114893 0.0318694 0.646867 -3.33627 -0.366837 -0.371125 0.166355
222 1 0.798276 0.137539 0.0106032 0.336975 -3.34224 -0.231216 -0.161717 -0.186581
228 1 0.825433 0.138656 0.0349019 0.321373 -3.30479 0.0897372 0.339868 0.0527768
225 1 0.832286 0.116319 0.0131159 0.735027 -3.26187 -0.642998 0.638177 0.14254
227 1 0.860097 0.120096 0.0387559 1.07729 -3.26617 -0.428995 -0.601886 -0.584067
226 1 0.857507 0.142068 0.0173464 1.05751 -3.28805 0.465898 -0.0714925 -0.555505
150 1 0.92557 0.0991724 0.0202642 1.14432 -3.26667 -0.369337 0.139873 0.23116
229 1 0.895472 0.122165 0.0191967 2.42725 -3.32329 -0.493749 -0.191868 -0.274093
231 1 0.918244 0.120638 0.0439624 1.51138 -3.29966 0.193298 0.410711 0.120476
156 1 0.953157 0.100499 0.0451134 7.70367 -3.33216 -0.401645 0.176034 -0.221115
154 1 0.984318 0.105037 0.0258738 5.29041 -3.34452 -0.411013 -0.00325212 -0.183236
233 1 0.946902 0.124162 0.023445 2.81398 -3.26433 0.900406 0.220474 0.0142581
235 1 0.976926 0.129119 0.0456358 7.39036 -3.30946 0.399648 -0.399783 0.0874342
30556 1 0.958669 0.101516 0.00133105 0.872192 -3.34023 -0.0874284 0.207765 -0.0713425
30635 1 0.982366 0.128353 0.0020544 0.805722 -3.31385 -0.178415 -0.064409 0.388472
238 1 0.0372708 0.154707 0.0287933 6.84893 -3.33442 0.254075 0.0806095 -0.37764
30640 1 0.00812614 0.153469 0.00349366 0.592103 -3.33155 0.145145 0.417391 0.403818
30719 1 0.0347189 0.178224 0.0057336 0.98597 -3.31826 0.236501 -0.209517 0.291012
317 1 0.0029919 0.178008 0.0270252 1.05323 -3.29491 0.221612 -0.486321 -0.381628
30564 1 0.0665891 0.15684 0.00560269 11.58 -3.28449 0.314002 0.0551117 1.11458
241 1 0.06632 0.179885 0.0301408 6.24066 -3.26964 -0.11292 -0.478015 -0.310788
245 1 0.0989249 0.181125 0.0126884 7.19581 -3.23078 -0.0589629 -0.257931 -0.679346
247 1 0.103608 0.166284 0.0380177 5.5802 -3.18565 -0.490024 -0.00510928 0.202517
249 1 0.110803 0.149958 0.0130509 3.6093 -3.18408 -1.00518 0.0966407 -0.28802
251 1 0.141357 0.160492 0.0453155 8.6829 -3.20862 1.23218 -0.402235 -0.713888
256 1 0.170644 0.183808 0.0456507 7.89214 -3.3481 0.000915467 0.516328 -0.333791
250 1 0.138702 0.171574 0.0165126 6.64489 -3.21145 -0.294617 0.915301 0.290658
255 1 0.162915 0.148401 0.0166853 3.77155 -3.2671 0.197648 -0.26358 0.284572
253 1 0.138899 0.147498 0.99337 6.79419 -3.21204 0.132965 0.00455123 -0.545531
252 1 0.127743 0.190656 0.0399167 7.63179 -3.17745 0.880976 -0.0828503 0.335779
259 1 0.203161 0.146631 0.0105854 0.724067 -3.28889 0.165506 -0.117135 0.240632
260 1 0.189588 0.174875 0.0182838 3.11491 -3.23078 0.247733 -0.113998 -0.13262
264 1 0.229955 0.171416 0.0107571 1.27418 -3.29398 0.00497044 -0.148755 0.462286
1861 1 0.226871 0.149086 0.0366107 0.958694 -3.32657 0.496198 -0.163254 -0.351115
1857 1 0.187948 0.155038 0.0400702 1.06176 -3.2717 -0.485283 -0.376897 0.0265048
1858 1 0.215974 0.18005 0.0415804 1.22664 -3.28459 -0.278669 -0.225345 0.130176
263 1 0.243475 0.14094 0.00857921 0.916443 -3.33575 0.208949 -0.0594858 -0.451248
1865 1 0.271152 0.142601 0.0306322 1.46211 -3.31995 -0.172587 -0.100266 0.411011
268 1 0.270213 0.164916 0.00851086 1.32068 -3.29691 0.323172 -0.00979301 -0.127902
1866 1 0.296132 0.172935 0.0299449 1.74088 -3.24882 -0.198847 -1.04373 0.230276
1862 1 0.256882 0.172044 0.0377624 1.88648 -3.29626 -0.304952 0.498316 -0.388122
272 1 0.310896 0.162664 -3.55273e-05 1.677 -3.26393 0.15279 0.451303 1.05681
1870 1 0.338799 0.167247 0.0245736 2.00698 -3.23737 -0.747116 0.171142 0.112851
351 1 0.337848 0.190365 0.00296443 1.93173 -3.16991 -0.805809 -0.81261 -0.328247
276 1 0.351599 0.155649 0.998998 6.3583 -3.30641 0.346014 0.216814 -0.46618
355 1 0.374366 0.183628 -0.00116241 8.63221 -3.22696 0.779136 -0.643152 0.0243493
1874 1 0.375992 0.158625 0.0237094 6.1057 -3.2956 0.733652 -0.0769901 0.324474
280 1 0.40479 0.1589 0.000700645 2.05113 -3.26803 0.521181 0.506455 0.258177
1957 1 0.40469 0.182893 0.0244217 7.72717 -3.34795 -0.157909 -0.174441 0.0591147
359 1 0.4354 0.184238 0.00118132 2.77723 -3.24086 -0.575169 -0.530012 0.812267
1878 1 0.432005 0.158846 0.0257512 2.25025 -3.31159 -0.217266 0.228156 0.41164
284 1 0.465774 0.161517 0.00888777 1.10929 -3.32665 0.149951 0.272442 -0.446782
1961 1 0.457897 0.184521 0.0295992 0.985742 -3.29959 0.364302 0.0587145 -0.256885
1882 1 0.493206 0.163625 0.034739 1.50769 -3.3132 -0.284088 0.11397 -0.617118
363 1 0.492982 0.188194 0.00845517 0.498576 -3.30089 0.0431766 -0.478077 0.346278
287 1 0.556325 0.142994 0.0128842 1.0128 -3.27541 -0.349145 0.75662 0.381246
288 1 0.52365 0.166073 0.0101507 0.774255 -3.34056 0.271854 -0.397781 0.237601
1886 1 0.552308 0.16439 0.0372419 2.56078 -3.28071 -0.411254 0.753235 -0.52288
1965 1 0.519929 0.187137 0.0315579 1.79954 -3.30852 -0.289011 0.359348 0.469244
367 1 0.552182 0.190241 0.0122629 0.517962 -3.29844 -0.281057 0.0581822 -0.0543556
1889 1 0.584375 0.146763 0.0417313 3.09077 -3.22724 -0.390622 -0.237386 -0.746034
291 1 0.611631 0.147531 0.0192504 1.27407 -3.27865 0.234025 0.616567 0.424359
292 1 0.581313 0.16926 0.015131 0.719365 -3.30735 -0.0105653 -0.0122402 0.499516
1890 1 0.610027 0.172208 0.0406967 0.418203 -3.3615 -0.443991 0.149856 0.0546314
1893 1 0.641529 0.153222 0.0439047 1.85522 -3.28825 -0.125912 -0.726026 -0.465153
295 1 0.673381 0.153139 0.0238078 0.550924 -3.38036 0.0242143 0.0861464 0.0524207
296 1 0.640803 0.17448 0.0208083 0.530273 -3.2937 0.105082 -0.441254 0.254908
293 1 0.645534 0.149635 1.00149 1.10482 -3.29091 0.026269 0.534202 -0.466442
294 1 0.673044 0.17772 0.00120391 0.733857 -3.27238 0.561092 -0.674788 0.180069
299 1 0.734391 0.155262 0.0264405 1.24356 -3.30744 -0.525 0.394818 0.225334
300 1 0.699146 0.178481 0.0253532 0.657821 -3.36526 0.388948 0.141645 -0.140897
298 1 0.735682 0.180955 0.00568052 0.84885 -3.31042 -0.714199 0.111738 -0.12179
297 1 0.705119 0.156025 0.00289491 1.04854 -3.35598 0.159906 -0.426028 0.394643
304 1 0.759529 0.181283 0.0292275 0.425658 -3.28845 0.471837 0.166782 0.441506
303 1 0.791995 0.159822 0.0304677 0.936403 -3.34731 0.0710609 -0.00456622 0.552449
302 1 0.793012 0.182742 0.0103197 0.607338 -3.3591 0.253915 0.409248 0.0279294
301 1 0.764333 0.15951 0.00751565 0.849116 -3.30254 0.403571 -0.648572 -0.448113
308 1 0.821248 0.185677 0.0354405 0.395263 -3.33066 -0.305746 0.0444999 -0.0948306
305 1 0.827732 0.163051 0.0139318 0.7534 -3.33639 -0.4386 0.143805 -0.208014
307 1 0.854192 0.164387 0.037904 0.340115 -3.29792 -0.209951 0.102997 0.605962
306 1 0.853739 0.186844 0.0170058 0.705095 -3.26377 -0.109996 0.39505 -0.397953
232 1 0.885879 0.144236 0.0396698 0.623493 -3.3258 0.463232 0.134984 0.236387
230 1 0.918875 0.147213 0.020211 1.0137 -3.277 -0.260828 -0.164845 0.611767
309 1 0.88582 0.168 0.0192374 0.559916 -3.31479 0.501025 -0.29966 -0.163815
311 1 0.916546 0.170642 0.0431536 1.5545 -3.31679 -0.711765 -0.414572 -0.0946596
236 1 0.945143 0.146466 0.0443968 1.20181 -3.30349 -0.339743 0.56909 0.185822
234 1 0.975906 0.152816 0.0249111 0.96449 -3.31972 0.507837 -0.448988 -0.236149
313 1 0.945108 0.173085 0.0229184 0.458827 -3.26427 0.547956 0.0438829 0.228767
30715 1 0.976496 0.175648 0.00277737 0.342286 -3.36501 0.0394752 -0.0788293 -0.0925993
242 1 0.0648536 0.203913 0.00956685 0.429629 -3.31582 0.202408 0.0925302 -0.186284
318 1 0.0319794 0.201777 0.0270259 1.00493 -3.2929 0.052495 0.253194 -0.0365088
323 1 0.0606895 0.227131 0.0331644 1.99901 -3.23072 0.576066 -0.176841 -1.26168
321 1 0.0340976 0.226276 0.00686835 1.06914 -3.31892 -0.408814 -0.27719 0.250575
30720 1 0.00386711 0.199388 0.00512363 1.11999 -3.30603 -0.0690513 0.463476 -0.0400124
248 1 0.0925578 0.202715 0.0313466 8.26442 -3.23172 -0.128395 0.950108 0.501867
246 1 0.128705 0.205245 0.0156315 9.37146 -3.24495 -0.0272037 0.642729 -0.298011
325 1 0.0918832 0.229167 0.0110093 1.57532 -3.27262 -0.317294 -0.553128 -0.42812
327 1 0.116493 0.229892 0.0328909 7.63922 -3.27225 0.89111 -0.147033 0.524859
329 1 0.155492 0.232978 0.0152574 7.76421 -3.24924 -0.749397 0.0696486 0.474201
331 1 0.155333 0.216586 0.0406084 8.51605 -3.25197 -0.0406005 -0.377522 -0.0125271
333 1 0.169552 0.199673 0.0163365 7.32761 -3.17017 -0.817595 0.518058 0.73859
336 1 0.181008 0.241086 0.0434546 8.13663 -3.23284 0.255121 -0.138652 -0.632047
335 1 0.194785 0.210221 0.0465388 4.23543 -3.3248 0.440623 -0.126585 -0.177764
339 1 0.216696 0.200244 0.0199573 5.24907 -3.26792 -0.407388 0.352976 -0.450558
344 1 0.239657 0.227089 0.0181579 2.30366 -3.32129 0.16031 -0.417626 -0.189618
334 1 0.194597 0.226678 0.0141268 8.29713 -3.24943 0.715762 0.0472387 0.758539
340 1 0.224259 0.232498 0.0466593 3.5118 -3.25901 0.0104842 0.294506 -0.272942
347 1 0.295007 0.194206 0.00759059 1.57288 -3.25359 0.101837 -0.461659 -0.405993
343 1 0.256332 0.194223 0.0146803 1.53026 -3.29302 -0.0695823 0.411116 -0.0827602
348 1 0.280859 0.222695 0.0141443 0.778211 -3.32433 0.0764397 0.281842 0.142592
1945 1 0.282165 0.201442 0.0378681 1.07704 -3.31345 -0.208856 -0.0723832 0.294592
1946 1 0.30858 0.225945 0.0381778 0.686765 -3.34276 -0.103505 -0.22412 -0.149101
1941 1 0.24239 0.20414 0.0422745 1.33628 -3.25023 -0.313056 0.0219395 0.167549
1942 1 0.265621 0.231764 0.0431994 0.938811 -3.31233 0.101364 -0.108529 -0.300919
1953 1 0.363029 0.192018 0.0265386 1.11804 -3.29248 0.447389 0.50137 0.0986592
1949 1 0.320597 0.194612 0.0304236 2.37833 -3.19703 0.884992 1.02125 0.414065
352 1 0.321719 0.216837 0.00839317 0.886432 -3.28148 -0.0808858 1.19525 0.145201
1950 1 0.349489 0.222135 0.032939 0.949327 -3.28568 -0.259388 0.430293 -0.825595
356 1 0.361271 0.214993 0.00202996 2.65496 -3.2561 0.683334 0.304709 0.681507
1954 1 0.390802 0.216788 0.0302785 0.9626 -3.24051 -0.458168 -0.099186 -0.0748579
360 1 0.401877 0.20551 0.00353511 7.55605 -3.29855 0.251527 0.391978 -0.769758
439 1 0.430909 0.232819 0.00299903 7.56696 -3.30936 -0.164722 -0.573515 0.357012
1958 1 0.428824 0.209103 0.0252076 7.07426 -3.30319 0.689969 -0.0795978 0.211403
364 1 0.462222 0.206882 0.00590561 2.09281 -3.254 -0.257998 1.09932 0.446665
2041 1 0.455911 0.234022 0.0308061 7.59061 -3.26545 0.433811 -0.237815 -1.09265
1962 1 0.485015 0.210975 0.0331291 1.78392 -3.28428 0.534005 -0.56438 -0.848797
443 1 0.487265 0.234091 0.00625923 0.806024 -3.32768 -0.329022 -0.123862 0.41296
2045 1 0.512188 0.233902 0.0321579 0.987592 -3.35267 0.0197689 0.38718 0.15931
368 1 0.518567 0.21338 0.00881051 1.29664 -3.27638 0.0979052 -0.43141 0.437722
1966 1 0.544876 0.212456 0.0325215 1.67684 -3.31849 -0.115981 0.335377 0.605735
447 1 0.544974 0.236958 0.0135785 0.593695 -3.34597 0.266581 0.241652 -0.379693
1969 1 0.577232 0.192149 0.0369695 0.577214 -3.33858 -0.0683522 -0.11012 0.406642
371 1 0.607493 0.195157 0.0174766 0.935085 -3.30093 0.489725 -0.190081 0.26029
372 1 0.579674 0.216472 0.0159963 0.787912 -3.33248 -0.295351 0.445402 -0.12547
1970 1 0.603364 0.218328 0.0417565 1.3839 -3.24164 0.708496 -0.422546 -0.814768
1973 1 0.638381 0.195868 0.0425988 1.32236 -3.31847 -0.783246 0.221765 0.54841
375 1 0.667056 0.199724 0.0239451 0.436892 -3.30445 0.637004 0.0421568 -0.209289
376 1 0.634161 0.219883 0.0194048 1.03724 -3.34908 0.00401326 0.173446 0.342557
373 1 0.64252 0.195401 0.999914 1.31876 -3.25981 -0.569065 0.896965 -0.661452
374 1 0.665927 0.223486 0.000852294 1.45203 -3.35563 0.575903 -0.313964 0.179564
379 1 0.72823 0.203127 0.0284355 0.247246 -3.33604 -0.13993 -0.0279609 -0.450829
380 1 0.693856 0.224465 0.029188 2.83688 -3.25817 0.243527 -0.398273 -1.2787
378 1 0.729444 0.227019 0.00602227 0.561464 -3.35131 -0.178309 -0.533891 0.330853
377 1 0.699994 0.20296 0.00414148 0.598457 -3.37505 0.240088 -0.0219061 0.391156
384 1 0.757531 0.227992 0.0303985 0.286574 -3.35718 0.253119 0.116796 -0.122606
381 1 0.762631 0.20555 0.00822326 0.286974 -3.30855 -0.252917 -0.16959 0.344592
383 1 0.788798 0.207151 0.0333518 0.182277 -3.37759 -0.0572965 -0.1501 -0.0200023
382 1 0.790595 0.231827 0.00941803 0.674415 -3.3575 -0.0208164 0.181078 0.631195
388 1 0.816656 0.232565 0.035916 0.487285 -3.34347 0.0996636 0.0408696 -0.38104
385 1 0.820594 0.209694 0.0140107 0.555149 -3.32496 -0.16898 -0.137117 -0.263892
387 1 0.848444 0.211249 0.0361329 0.746592 -3.34129 0.0740586 0.152129 0.508981
392 1 0.876066 0.235194 0.0363618 1.80373 -3.32556 0.0287936 0.348715 0.434459
386 1 0.84688 0.23626 0.0134449 1.34143 -3.32592 -0.00362859 -0.607792 0.172916
312 1 0.881576 0.189751 0.0402638 0.364894 -3.35053 -0.141419 0.349656 0.214015
310 1 0.913671 0.193771 0.0205968 0.36172 -3.31343 -0.318122 -0.175918 0.15776
389 1 0.87993 0.212982 0.0171249 0.479431 -3.32401 0.254605 -0.0987755 -0.150401
391 1 0.910184 0.216537 0.0422348 0.837497 -3.346 -0.686081 -0.0422833 0.164003
393 1 0.93933 0.21937 0.0227591 0.77976 -3.29554 0.686326 -0.0898533 -0.470286
316 1 0.941226 0.195326 0.0444676 0.391322 -3.25419 -0.256235 -0.125684 0.538112
314 1 0.971026 0.199678 0.0264634 1.71434 -3.28851 0.536846 -0.370666 -1.1054
397 1 -0.000297088 0.22495 0.0261767 1.46315 -3.37664 -0.0279669 -0.6895 -0.0758208
30795 1 0.974216 0.222169 -0.000564236 1.84213 -3.36808 -0.289441 -0.328925 0.755383
324 1 0.0246237 0.249434 0.0276709 1.69217 -3.29391 0.34481 -0.329269 0.00567386
322 1 0.0596385 0.249572 0.0092859 0.782533 -3.33457 0.124592 -0.0418532 -0.447622
403 1 0.0564794 0.271859 0.028333 0.540075 -3.33115 -0.032783 0.511012 0.148466
401 1 0.0278098 0.270989 0.00448365 0.560301 -3.31413 -0.192415 -0.0491901 0.12114
328 1 0.0896286 0.251753 0.0317269 0.920118 -3.24106 -0.780368 -0.0457845 -0.0431453
326 1 0.120714 0.25277 0.00873503 2.04997 -3.27805 0.246744 0.0534851 0.42543
405 1 0.0888751 0.274293 0.00715312 0.913062 -3.28246 -0.702121 -0.242572 -0.037809
407 1 0.11475 0.274155 0.0309552 1.85478 -3.20918 -0.106541 1.02812 0.444047
332 1 0.14472 0.256051 0.0348787 5.83698 -3.26338 0.430895 -0.542058 -0.188856
330 1 0.181317 0.257921 0.0176154 8.09502 -3.3008 -0.160055 -0.202545 -0.0105724
409 1 0.148239 0.278833 0.0141495 0.772472 -3.26673 -0.207045 -0.255469 -0.331212
411 1 0.175459 0.280978 0.037178 6.30938 -3.25078 -0.386815 -0.365175 0.650303
413 1 0.206873 0.282263 0.019369 7.52079 -3.21301 0.0950578 0.581955 0.591584