ITEM: TIMESTEP
18500
ITEM: NUMBER OF ATOMS
32000
ITEM: BOX BOUNDS pp pp pp
7.3782822747956063e+00 7.3621717725204448e+01
-3.7089221244695594e+00 8.4708922124469694e+01
-5.5693084599649296e+00 8.6569308459964262e+01
ITEM: ATOMS id type xs ys zs c_csym c_peratom fx fy fz
4 1 0.00700653 0.034156 0.0339943 8.84126 -3.22663 -0.346602 0.115929 0.193628
8 1 0.0451534 0.029395 0.0261403 1.29057 -3.20278 0.11311 -0.339512 0.270763
2 1 0.0175685 0.0242068 0.00545067 3.52535 -3.32171 -0.619663 -0.0409571 -0.615385
6 1 0.0579076 0.0199482 -0.0022521 1.07768 -3.28111 0.350694 0.0109486 0.544245
3 1 0.0188952 0.00322062 0.0278678 1.15669 -3.27852 -0.405907 -0.0980598 -0.201702
12 1 0.0850094 0.0240611 0.0236309 0.929112 -3.31812 0.231964 -0.780817 -0.00730818
89 1 0.0866212 0.0474431 0.00102875 1.82013 -3.29147 -0.190129 -1.12119 -0.044263
7 1 0.0581567 0.998375 0.0225971 0.539705 -3.28105 -0.30426 0.0632096 -0.0211628
16 1 0.125375 0.016054 0.0194353 1.50943 -3.27919 0.149238 0.571776 -0.167352
1614 1 0.153031 0.0204555 0.042964 0.685208 -3.19994 0.34206 0.317231 0.580744
95 1 0.153376 0.0410396 0.0219477 1.19798 -3.27121 0.142154 0.507777 -0.335082
20 1 0.168514 0.0125568 0.0173562 0.221738 -3.27555 0.0667418 -0.431113 -0.285472
93 1 0.127347 0.0427689 0.997606 1.88714 -3.27964 0.0119918 -1.15631 -0.0834139
99 1 0.195189 0.0370713 0.0188987 1.50389 -3.2366 0.667242 0.271446 -0.444103
24 1 0.212968 0.00910964 0.0143701 6.16762 -3.33043 0.124358 -0.280563 0.291405
1618 1 0.193854 0.0150973 0.0418045 2.6623 -3.28323 0.535249 -0.45033 -0.221705
1701 1 0.225143 0.0423848 0.0410196 3.13958 -3.27988 -0.302531 0.154561 0.157045
1622 1 0.238903 0.0103055 0.0412097 7.2322 -3.34767 -0.261004 -0.430428 0.0351701
103 1 0.241809 0.0337173 0.0154029 6.86711 -3.28008 -0.403141 -0.0620691 -0.119576
28 1 0.270695 0.0103778 0.0211887 1.97433 -3.3088 0.402448 -0.10461 -0.364943
1705 1 0.264812 0.0337614 0.0404293 6.49587 -3.2582 0.309934 0.270436 0.470807
1626 1 0.301236 0.0142106 0.0418561 1.82217 -3.30398 -0.212955 -0.309791 0.236858
1709 1 0.298569 0.0365612 0.0191253 1.07042 -3.30251 -0.132584 -0.477514 0.00902197
1630 1 0.3332 0.0156172 0.0214369 0.369344 -3.32635 -0.115005 -0.25464 0.259825
1713 1 0.357959 0.0404188 0.0228344 0.281281 -3.34522 0.21033 0.223941 -0.065187
36 1 0.364191 0.0159442 0.00198978 0.74712 -3.28858 0.0621869 0.345297 -0.0668709
111 1 0.331236 0.0380434 0.999249 0.222429 -3.31615 0.0814694 -0.196088 -0.259565
115 1 0.390257 0.0438773 0.000685269 0.472069 -3.35238 0.0929162 -0.26731 0.325297
1634 1 0.391116 0.0204397 0.0244222 0.699262 -3.29962 0.519017 0.108385 -0.194896
40 1 0.425845 0.0220726 0.00346463 0.868933 -3.36533 -0.579696 0.146832 0.0713677
1717 1 0.418661 0.044939 0.0253486 0.290575 -3.32448 -0.421878 -0.0813922 -0.375073
1638 1 0.451466 0.0226719 0.0276609 0.982032 -3.29245 -0.115093 0.269473 -0.192665
44 1 0.483478 0.0278589 0.00763383 0.610139 -3.32112 -0.106404 0.0902203 0.0355272
119 1 0.448355 0.0494841 0.00497062 1.24212 -3.30014 0.311227 -0.375216 -0.0465867
1721 1 0.477192 0.0503845 0.0287322 0.517632 -3.31749 0.45006 -0.0452181 -0.288412
1641 1 0.484505 0.00289235 0.0303442 5.80341 -3.29181 0.319532 -0.0669206 -0.0697167
1642 1 0.512136 0.0291682 0.0307673 6.11928 -3.29849 -0.223558 0.058884 -0.207659
48 1 0.544115 0.0305218 0.0112938 1.20371 -3.2931 -0.764581 -0.0760541 -0.136357
1645 1 0.539032 0.00549259 0.0333182 6.42665 -3.24117 0.127945 0.857176 0.0583206
43 1 0.513544 0.00582973 0.00841305 0.82562 -3.33963 0.492159 0.289786 -0.16398
52 1 0.598941 0.0350958 0.0154806 0.472083 -3.32786 0.184054 0.263872 0.430353
47 1 0.574113 0.00888042 0.0130421 0.715605 -3.27524 0.0826726 0.554102 0.56412
1646 1 0.567838 0.0317723 0.0350951 0.640503 -3.31904 0.216342 -0.0673887 0.49888
1649 1 0.599468 0.010816 0.0406224 1.75766 -3.34097 0.207489 0.615463 -0.578678
1650 1 0.627598 0.0381307 0.0399006 0.305494 -3.35461 -0.00702524 0.0420752 -0.0304333
51 1 0.631323 0.0150556 0.0197504 0.808329 -3.34396 0.0786224 0.0538716 -0.153938
56 1 0.661062 0.0400713 0.0218998 1.15434 -3.30997 -0.216542 0.290132 -0.487089
1653 1 0.661121 0.0179958 0.0418777 0.526792 -3.3131 -0.364798 -0.119617 0.413461
53 1 0.664725 0.0167469 0.999602 0.64727 -3.33118 0.497715 0.350219 -0.218303
55 1 0.693296 0.0182165 0.0242811 0.716156 -3.32655 0.396696 0.369676 -0.501591
54 1 0.691535 0.0411793 1.00066 0.680763 -3.3426 0.00103986 -0.00501614 -0.155249
60 1 0.71821 0.0458013 0.0240238 0.911314 -3.29806 0.129867 -0.584989 0.185964
57 1 0.725252 0.020501 0.00278704 0.619243 -3.33172 -0.193207 0.168876 -0.0016025
59 1 0.749771 0.0234415 0.0264621 1.35295 -3.30216 0.0814293 0.367402 0.762644
58 1 0.750536 0.0486078 0.00465682 1.03963 -3.31337 0.163036 -0.450127 -0.0145986
64 1 0.77618 0.048602 0.028547 1.29127 -3.31119 0.339053 0.0557798 0.591776
61 1 0.784268 0.0261525 0.00964955 0.807543 -3.30739 -0.160989 0.0344138 -0.201621
63 1 0.811772 0.0277488 0.0340168 1.34789 -3.29571 -0.556828 0.0655112 -0.0251052
1582 1 0.813271 0.00343989 0.0100696 1.01541 -3.2848 0.325157 0.241803 0.136685
65 1 0.842006 0.029511 0.0137293 0.446042 -3.26714 -0.0422027 -0.128179 -0.0726148
67 1 0.86817 0.0280981 0.0379034 5.43561 -3.30868 0.368962 -0.0230326 0.113832
1588 1 0.83891 0.00527213 0.0345014 7.91122 -3.32514 0.399449 -0.331735 0.353143
1586 1 0.872317 0.00694217 0.0158017 6.17876 -3.29461 0.537697 0.324858 -0.189137
69 1 0.901489 0.0328474 0.0186111 6.18156 -3.30912 -0.133016 -0.382977 0.116007
1590 1 0.914457 0.999508 0.0223004 0.934346 -3.22397 -0.402138 0.0430645 0.183936
30471 1 0.930763 0.0358256 1.00011 9.73489 -3.20427 0.420924 0.231403 0.288988
73 1 0.943082 0.022686 0.026473 2.15107 -3.21233 -0.903398 -0.0305381 0.113261
78 1 0.973401 0.0304296 0.00123316 4.60132 -3.27344 -0.29604 -0.427974 0.314317
79 1 0.979059 0.0122713 0.0304231 7.21799 -3.22506 0.42463 -0.0638163 0.0841881
77 1 0.944436 0.00508134 1.00077 5.84626 -3.28351 0.188808 0.196112 -0.289326
1 1 0.986775 0.000104379 1.002 1.87711 -3.33141 0.36431 0.433718 -0.351834
85 1 0.0442436 0.0486171 0.000563295 2.71551 -3.32986 -0.183953 0.471863 0.50399
83 1 0.0311603 0.0579367 0.0318069 3.29475 -3.27079 -0.151881 0.200907 -0.0441787
81 1 -9.56953e-05 0.0533453 0.00535799 7.2234 -3.23498 1.20504 -0.142778 0.462986
82 1 0.0303635 0.0791742 0.00855553 5.73237 -3.28061 -0.532434 -0.7079 -0.0763497
88 1 0.057755 0.0812733 0.0350632 4.10814 -3.30295 0.285954 0.453161 -0.293872
91 1 0.113276 0.0465089 0.0274094 1.30236 -3.31253 -0.0398486 0.438174 -0.34863
87 1 0.0718723 0.0511698 0.0296605 1.1671 -3.21724 0.139787 1.20783 -0.213637
92 1 0.0994366 0.0782618 0.032023 0.179073 -3.35697 0.0665867 -0.189645 -0.133974
86 1 0.0709896 0.0743849 0.00670285 0.484055 -3.28327 0.187691 0.0619818 -0.0170678
90 1 0.11313 0.0698611 0.00454175 0.499723 -3.23086 0.206125 0.203954 0.0993116
96 1 0.142461 0.0732653 0.0276832 0.73275 -3.30581 -0.351107 -0.136192 0.191518
100 1 0.184308 0.0695826 0.0237468 1.1654 -3.30468 -0.113897 -0.192781 -0.129788
94 1 0.15572 0.0633396 1.00065 2.15812 -3.29096 0.442497 0.537038 -0.166441
177 1 0.182184 0.0923914 0.998066 5.76744 -3.30863 0.089674 -0.154947 0.391113
104 1 0.226263 0.0654957 0.0188853 0.368573 -3.32354 -0.0368518 0.107267 0.088305
179 1 0.207033 0.0963555 0.0245837 6.56852 -3.31079 0.614231 -0.514925 -0.320499
183 1 0.254492 0.0914861 0.0192597 1.06834 -3.27838 -0.467251 -0.151747 0.801304
1706 1 0.267942 0.0592723 0.0158407 8.64183 -3.26315 -0.298479 -0.399133 0.160467
1712 1 0.29443 0.054281 0.043429 2.10387 -3.30007 -0.447271 0.235735 0.0111838
1789 1 0.294606 0.0813645 0.0166404 7.15782 -3.19853 0.291205 0.767129 1.01567
1710 1 0.325201 0.0602325 0.0207901 0.775909 -3.29437 0.225362 0.142831 0.492157
1793 1 0.348086 0.0869634 0.0229612 2.31945 -3.28764 0.421798 -0.407578 0.0401831
116 1 0.356592 0.0625344 0.998329 1.00417 -3.35395 0.225123 0.366709 0.39234
1791 1 0.31665 0.0798683 0.0464082 2.63609 -3.25573 -0.00745843 0.0315768 -0.994927
1716 1 0.353666 0.0636144 0.044525 1.07352 -3.29213 -0.0979736 -0.484528 -0.214124
191 1 0.32574 0.0850041 0.998673 0.593479 -3.28114 0.34889 0.106998 -0.598061
195 1 0.382891 0.0881323 1.0019 1.0794 -3.33232 0.0570235 0.270158 -0.0975583
1714 1 0.384809 0.0666323 0.0235038 0.348254 -3.34102 -0.179324 -0.180395 -0.287152
120 1 0.416104 0.0680514 0.000816381 0.967917 -3.30514 0.100402 0.282051 0.695901
1797 1 0.411467 0.092614 0.0244964 0.974602 -3.35664 -0.0435695 -0.568722 -0.0447346
1795 1 0.378601 0.0891253 0.0454302 0.653964 -3.29933 0.0895829 -0.338208 0.270691
1718 1 0.444344 0.0701766 0.0270682 0.505611 -3.34736 -0.0535369 0.477231 -0.198888
199 1 0.444129 0.0911278 0.00305895 1.79618 -3.30329 -0.36488 0.624739 0.544528
124 1 0.476334 0.0728904 0.0042068 0.825384 -3.30417 0.422799 0.0282207 0.71446
1801 1 0.471372 0.0960003 0.0271708 0.692251 -3.34403 -0.178281 -0.410648 0.0792161
123 1 0.508254 0.0532548 0.00811176 0.700689 -3.33912 0.300105 -0.419251 0.0505863
1725 1 0.539241 0.0540662 0.0332114 1.30026 -3.31825 -0.513587 0.0666867 0.256352
1722 1 0.504126 0.0743887 0.0303779 0.237046 -3.34311 0.0183037 0.0803129 -0.0187564
128 1 0.535262 0.0764724 0.0090563 0.355455 -3.34743 0.128382 0.310052 0.115539
1726 1 0.562778 0.0795255 0.0350793 0.320512 -3.3391 0.116915 -0.0829526 0.0251105
127 1 0.566193 0.0560388 0.0115885 0.900265 -3.29343 0.662625 0.40887 0.137374
132 1 0.594538 0.0824965 0.0147095 0.325246 -3.35015 0.0302484 -0.321245 -0.210689
1729 1 0.594703 0.0585727 0.0377851 0.253762 -3.36345 -0.16457 -0.232539 -0.397513
1730 1 0.618453 0.0848955 0.0392209 1.86812 -3.24805 0.435761 -0.434068 -0.407038
131 1 0.627023 0.0609217 0.0162155 0.462471 -3.37509 0.0711882 0.150976 0.327806
136 1 0.656288 0.0855245 0.0176072 1.62385 -3.31044 -0.521044 0.317927 0.000696473
135 1 0.686016 0.0657074 0.0234305 1.01282 -3.23342 0.0951078 -0.189024 -0.811421
1733 1 0.653028 0.0665755 0.0404566 2.51742 -3.28519 -0.198958 -1.02721 0.0280061
1734 1 0.682186 0.0887794 0.0435589 0.93164 -3.26209 -0.443823 0.456362 0.574275
134 1 0.686743 0.0891374 0.998661 0.846876 -3.30174 -0.383442 -0.383073 -0.169712
140 1 0.71256 0.0890561 0.0250193 0.72169 -3.26033 0.424824 0.733029 -0.50043
137 1 0.717535 0.06796 0.00249647 0.463733 -3.35113 0.0294762 -0.0247686 -0.248123
139 1 0.744528 0.068525 0.0281336 0.926079 -3.30449 0.353735 0.532748 -0.266025
138 1 0.746795 0.0923996 0.00469836 0.424492 -3.3075 -0.180097 -0.332011 0.36779
62 1 0.812221 0.0510727 0.0115869 0.540794 -3.30499 -0.597404 -0.200815 0.195272
144 1 0.773195 0.0950733 0.0301977 0.284446 -3.40292 0.00169804 0.0515092 -0.0677778
141 1 0.779177 0.0729115 0.00824969 0.629667 -3.34293 -0.320708 -0.201481 0.120205
143 1 0.805773 0.0726224 0.0333381 0.470335 -3.39347 -0.043098 0.118813 0.115573
142 1 0.805805 0.098318 0.00939431 0.665573 -3.30722 -0.234157 -0.161582 0.351345
68 1 0.83997 0.0506962 0.0353302 0.724597 -3.27417 -0.54398 0.312491 0.0584912
66 1 0.871396 0.0555772 0.0148621 1.39825 -3.24562 -0.609204 -0.264933 0.62055
145 1 0.838275 0.0754005 0.0133912 0.307829 -3.29709 -0.196225 0.197419 0.371763
148 1 0.831434 0.0981697 0.0358352 1.15877 -3.32848 0.233133 -0.28239 -0.567288
147 1 0.864759 0.0751549 0.0376704 0.502877 -3.25056 0.149204 0.174786 -0.0417254
72 1 0.897113 0.0530184 0.0401791 7.07598 -3.36973 -0.0384249 0.126985 0.188833
70 1 0.931019 0.0579339 0.0197116 6.51904 -3.33973 -0.330118 0.0433647 0.264854
149 1 0.895917 0.0791712 0.018996 0.662574 -3.27253 0.622238 0.0414531 -0.174676
151 1 0.923187 0.0777896 0.0426607 7.00746 -3.29624 0.381757 0.290516 -0.53495
74 1 0.969133 0.0446626 0.0269713 3.9173 -3.24536 0.186858 0.595753 0.432559
153 1 0.958114 0.0821188 0.0230846 6.36355 -3.28676 -0.67234 0.402372 -0.0395894
157 1 0.994389 0.0717663 0.0303271 2.79327 -3.26106 0.42062 -0.0828371 0.259194
30555 1 0.990676 0.0875366 0.00501785 7.34293 -3.24272 -0.0230577 -0.144385 -0.171856
158 1 0.023692 0.0970631 0.0318053 6.11494 -3.21068 -0.184062 -0.159616 0.17581
30560 1 0.0179828 0.114538 0.00632787 5.42849 -3.2161 -0.251085 -0.000738415 0.0407474
161 1 0.0501682 0.120726 0.0325668 5.52275 -3.2043 0.0700328 0.0606218 0.122905
30639 1 0.0453076 0.137981 0.0089001 2.7138 -3.30385 0.552479 0.0305642 -0.331383
237 1 0.0123231 0.1338 0.0279481 5.14992 -3.26006 -0.0277814 0.389381 0.00664764
165 1 0.0558713 0.102246 0.00911762 6.1718 -3.28699 0.517681 0.541194 0.297827
167 1 0.0861112 0.108261 0.0377719 3.33713 -3.22973 -0.345204 -0.440336 -0.284963
166 1 0.0856495 0.127897 0.0148027 7.31638 -3.28192 -0.116107 -0.359917 -0.562468
169 1 0.100145 0.0989919 0.00909932 1.20787 -3.31355 -0.334324 0.193447 0.443675
172 1 0.111288 0.133747 0.037309 1.51458 -3.29198 0.247004 0.496323 0.757836
176 1 0.133346 0.126509 0.0144347 3.60418 -3.23011 -0.425119 -0.252809 -0.460634
173 1 0.141017 0.0928463 0.00556761 3.16847 -3.29263 0.258729 0.492873 0.345908
171 1 0.125238 0.105347 0.0354838 1.7729 -3.26768 0.593218 -0.639068 -0.337696
175 1 0.167482 0.0980811 0.0330128 2.687 -3.1733 -0.289036 0.447166 -0.41134
180 1 0.172841 0.118423 0.0127159 7.62446 -3.25515 0.49143 0.381139 -0.650379
1774 1 0.156703 0.128657 0.0374987 0.846987 -3.23136 -0.0430083 0.291504 -0.0685944
184 1 0.212379 0.116278 -7.01221e-05 2.38078 -3.28958 -0.374588 0.49497 0.485852
1778 1 0.200632 0.123942 0.0340555 2.8982 -3.18478 -0.973872 0.374275 -0.287262
1782 1 0.23826 0.120795 0.0252841 0.55681 -3.32345 0.513107 0.0783117 -0.0923903
263 1 0.240153 0.144851 0.00252375 1.15584 -3.31488 0.251053 -0.274275 -0.169177
1786 1 0.281386 0.116294 0.02106 0.685514 -3.27444 -0.26026 0.299094 0.440113
1869 1 0.309757 0.143511 0.0238369 1.4354 -3.2826 0.13743 -0.606872 0.384121
1790 1 0.320563 0.108949 0.0188214 8.00645 -3.29832 -0.0364535 0.131921 0.139349
1873 1 0.347977 0.132445 0.0210546 6.2636 -3.31004 0.142171 0.214852 0.15381
196 1 0.353249 0.111053 -0.0016029 0.330265 -3.36206 -0.170481 -0.174227 -0.22605
1794 1 0.377209 0.111016 0.0236887 0.615791 -3.2926 0.168953 0.134925 -0.16155
275 1 0.380666 0.135404 -0.000718844 0.553402 -3.27052 -0.262363 -0.258189 0.35866
200 1 0.412178 0.115077 0.00173909 0.594085 -3.32115 -0.257133 -0.469439 0.48473
1877 1 0.406203 0.1367 0.0241445 0.43306 -3.38447 -0.112317 -0.0310583 0.450144
1798 1 0.438492 0.115017 0.0273962 1.02184 -3.32373 -0.11605 0.562506 -0.220468
279 1 0.437452 0.14027 0.00250278 0.819501 -3.29042 -0.372429 0.238011 0.445503
204 1 0.467301 0.119948 0.00564288 1.54295 -3.29912 0.482344 -0.368221 0.18016
1881 1 0.464864 0.142853 0.0263778 1.42696 -3.27945 -0.125314 -0.633741 0.737576
1802 1 0.495187 0.120898 0.0290163 0.683449 -3.37349 0.427978 0.294472 0.369961
203 1 0.504873 0.098504 0.00850628 1.10667 -3.33378 -0.178884 -0.214477 -0.15732
1805 1 0.530282 0.0990696 0.0333809 0.611341 -3.32681 -0.0348005 0.187511 -0.244738
208 1 0.530144 0.12412 0.00856119 0.743824 -3.33052 -0.107443 -0.495387 0.453249
1806 1 0.555542 0.124781 0.0334043 0.5115 -3.31626 -0.00927112 -0.122297 0.229388
207 1 0.562006 0.101513 0.0119251 0.393441 -3.33416 -0.41894 0.0256531 -0.0729863
1809 1 0.589035 0.10645 0.0360457 1.34803 -3.29651 -0.258762 -0.42725 0.133595
211 1 0.623576 0.106085 0.0169645 1.53179 -3.33208 -0.379314 0.0166573 -0.268248
212 1 0.58706 0.127002 0.0129193 0.519729 -3.30791 0.492984 -0.20363 0.0538256
1810 1 0.615904 0.12874 0.0378844 0.405245 -3.32974 0.146256 0.421652 0.0561392
215 1 0.679985 0.11188 0.022517 1.02755 -3.34085 0.20872 -0.241234 -0.680761
1813 1 0.648018 0.107039 0.0425409 1.03398 -3.3199 0.148807 0.352407 -0.585261
216 1 0.647093 0.131397 0.017177 0.71092 -3.26695 -0.339311 -0.0234558 0.381806
1814 1 0.674958 0.132165 0.0430503 0.876199 -3.23517 -0.572965 0.350831 0.755156
214 1 0.677923 0.13394 0.999194 1.08649 -3.30056 0.747435 -0.393809 -0.288345
220 1 0.709753 0.137069 0.0252457 2.52112 -3.25553 -0.427253 -0.453393 -0.782394
217 1 0.713262 0.110435 0.00199799 1.26933 -3.31444 -0.178933 0.85875 -0.1687
219 1 0.738808 0.115678 0.025341 1.0604 -3.31636 0.274212 -0.448142 0.551813
218 1 0.739895 0.135448 0.00260568 1.88468 -3.30435 -0.456472 0.841484 -0.015025
224 1 0.767367 0.139965 0.0282158 0.496343 -3.3501 0.106359 0.312855 0.163119
221 1 0.772437 0.119056 0.00720535 0.97444 -3.30173 0.470899 -0.578352 -0.292815
223 1 0.802473 0.119532 0.0304786 0.695064 -3.33725 -0.39542 0.176124 0.382606
222 1 0.801533 0.141296 0.00778016 0.818887 -3.28717 -0.271414 0.150526 0.286333
146 1 0.864763 0.0994426 0.0172903 1.42114 -3.35204 -0.177975 0.343972 -0.396032
225 1 0.834739 0.12256 0.0102306 1.08691 -3.29234 -0.285973 -0.187886 0.649758
227 1 0.860052 0.123666 0.0361696 0.272743 -3.33072 -0.168585 -0.096461 -0.330622
226 1 0.859237 0.148118 0.0108604 2.19809 -3.2837 0.214008 -0.309135 0.74756
152 1 0.89268 0.102112 0.0393068 0.59544 -3.27249 -0.0842185 -0.247835 0.172777
150 1 0.921965 0.10345 0.0192713 0.755512 -3.31218 0.500768 -0.116338 0.144014
229 1 0.891242 0.125433 0.0160827 0.394001 -3.34781 -0.0918044 0.0543516 0.108223
231 1 0.918228 0.125629 0.0415015 0.79125 -3.30832 0.425393 0.225342 0.176416
156 1 0.954661 0.104253 0.0454469 7.49953 -3.34543 -0.311753 0.164761 -0.329134
154 1 0.987226 0.108176 0.0256923 7.2094 -3.25213 -0.789773 0.333776 -0.0264488
233 1 0.948756 0.130186 0.0220936 1.63875 -3.28286 1.1735 -0.758994 -0.0272115
30556 1 0.955702 0.105948 1.00222 0.977834 -3.32528 0.288557 0.304786 -0.0668375
30635 1 0.983454 0.13437 0.00275493 1.29328 -3.34946 0.158668 -0.682478 -0.112295
238 1 0.0374401 0.160395 0.0285744 5.55293 -3.29226 0.375245 0.167744 0.0484961
30640 1 0.0136081 0.156311 0.00437037 1.28479 -3.28249 -0.416137 0.0827685 -0.236774
30719 1 0.0392705 0.183655 0.00488867 1.61123 -3.28413 0.0753669 0.177258 0.879779
241 1 0.0639369 0.185322 0.0330088 5.4033 -3.25526 0.784327 -0.127162 -0.963687
162 1 0.0741918 0.145987 0.0357628 7.10961 -3.12314 -0.212757 0.0233735 -0.181738
30564 1 0.0732228 0.164454 0.0102022 6.29745 -3.23331 -0.577868 0.668549 0.83828
245 1 0.10288 0.188987 0.0152009 6.44671 -3.29296 -0.785849 -0.49343 0.0526332
247 1 0.0996015 0.167658 0.0395751 6.69707 -3.16244 0.750723 0.488125 -0.277734
249 1 0.111112 0.155992 0.014187 3.14436 -3.27905 0.504083 -0.218748 0.379793
251 1 0.140555 0.158489 0.0394068 0.689689 -3.326 -0.142509 0.0969297 -0.142606
256 1 0.167785 0.18424 0.0418967 1.24109 -3.30612 -0.0600022 -0.096722 0.0407807
250 1 0.141406 0.181466 0.0164997 1.48251 -3.28681 0.283568 -0.190006 -0.0194459
255 1 0.159552 0.151633 0.0145193 0.786062 -3.24035 -0.490901 0.0148538 -0.152413
260 1 0.18543 0.177188 0.0151786 1.29167 -3.16861 -0.237102 -0.39519 -0.425142
1857 1 0.18297 0.154119 0.036394 0.533692 -3.28804 0.360625 -0.115963 0.802917
259 1 0.202603 0.146266 0.00974758 2.07737 -3.26197 -0.641756 -0.223169 0.131174
264 1 0.225319 0.173502 0.0102553 1.30702 -3.24695 1.03156 0.0710015 0.381055
1861 1 0.224842 0.150489 0.0333273 0.658128 -3.32739 0.581037 -0.024772 0.207088
1858 1 0.209012 0.178934 0.0374561 0.412292 -3.24699 0.733158 0.00261408 0.706609
1865 1 0.269367 0.14689 0.0264046 1.36698 -3.2973 -0.840239 -0.165351 0.698652
268 1 0.267057 0.170304 0.00289626 1.40571 -3.30103 -0.586436 -0.377774 0.531063
1866 1 0.293713 0.171385 0.0299957 0.600094 -3.30832 0.0128952 0.288377 -0.0960924
1862 1 0.253358 0.17613 0.0342135 0.799271 -3.33085 -0.718769 -0.304426 -0.353741
272 1 0.307159 0.162494 0.00165504 0.816156 -3.26151 0.524444 0.428157 -0.0712642
1870 1 0.335271 0.168367 0.0283394 2.04555 -3.30108 -0.173644 -0.0587264 -0.334678
351 1 0.331273 0.187994 0.00417691 1.21525 -3.28442 0.862984 -0.0721749 -0.157124
355 1 0.373705 0.182273 -9.71741e-05 7.82543 -3.35911 0.00607626 0.190145 0.16047
1874 1 0.373508 0.159139 0.0230282 5.82811 -3.28672 0.318642 -0.137381 0.362711
280 1 0.404908 0.160375 0.00236185 0.444376 -3.3227 0.379503 0.374381 -0.0531811
1957 1 0.398906 0.185122 0.0241313 6.8311 -3.38093 0.355098 0.146889 0.155305
359 1 0.434544 0.188588 0.00389685 1.28741 -3.33692 -0.404931 -0.55917 -0.2178
1878 1 0.431293 0.162519 0.027837 1.01176 -3.29028 -0.37721 0.226629 -0.61477
283 1 0.49836 0.144035 0.00687283 0.961591 -3.28044 -0.399976 -0.167259 0.77024
284 1 0.462832 0.164804 0.00772141 1.70546 -3.26181 0.0457512 0.569222 -0.665242
1961 1 0.458807 0.188882 0.0277248 0.5371 -3.29343 0.00802481 -0.25509 0.46444
1882 1 0.491152 0.167078 0.0297719 0.192064 -3.35436 0.0472784 0.207884 0.191452
363 1 0.491584 0.189864 0.00777326 0.353836 -3.31164 0.358162 -0.544056 0.0912527
1885 1 0.523939 0.147043 0.033062 0.766824 -3.29779 -0.196735 -0.599815 -0.426548
287 1 0.556288 0.147313 0.0119959 0.250045 -3.30857 -0.216009 0.414338 -0.188589
288 1 0.524241 0.168665 0.0102258 0.102908 -3.36641 -0.0224503 0.0978376 0.00970257
1886 1 0.551947 0.169779 0.0344059 0.354034 -3.30406 -0.00116473 0.349943 0.0133302
1889 1 0.582626 0.148867 0.0350079 0.57341 -3.3151 0.397599 0.0512567 0.411573
291 1 0.615714 0.152614 0.0148565 0.453601 -3.36486 0.348017 0.0033509 0.271368
292 1 0.584684 0.172564 0.0136699 0.483775 -3.32099 -0.349176 0.212918 0.0466923
1890 1 0.60906 0.174729 0.0384512 0.279893 -3.35697 0.171243 0.172359 -0.0217404
1893 1 0.64211 0.154175 0.0426143 0.956815 -3.35529 0.012979 -0.0392276 -0.534797
295 1 0.673678 0.153573 0.0229011 3.40403 -3.22453 -0.153973 0.935839 -0.625349
296 1 0.643212 0.178973 0.0187731 0.901008 -3.30721 -0.411001 -0.717644 0.23259
294 1 0.673667 0.179287 1.00011 1.43178 -3.27556 -0.0118641 0.128279 -0.750881
1894 1 0.670604 0.181475 0.0440668 1.35914 -3.28777 -0.136549 -0.547588 -0.657061
299 1 0.735301 0.160215 0.02437 0.983587 -3.31942 0.216042 0.000903543 0.131978
300 1 0.702305 0.180839 0.0219447 0.675687 -3.28873 -0.213056 0.0774005 0.348727
298 1 0.736713 0.182726 0.00475032 0.929913 -3.31497 -0.219421 0.174081 -0.547626
297 1 0.702885 0.158743 0.000633279 2.95774 -3.29465 0.88698 -0.416873 0.128634
1897 1 0.700061 0.158702 0.0443718 1.42737 -3.31311 0.470977 0.197967 0.696743
304 1 0.76487 0.186153 0.0270775 0.848025 -3.29379 -0.312334 -0.0793296 0.303218
303 1 0.794002 0.165271 0.0323446 1.40518 -3.31925 0.348277 -0.303482 -0.672999
302 1 0.797654 0.190237 0.00755918 1.69445 -3.27192 -0.401717 -0.716118 0.285681
301 1 0.771468 0.163022 0.00596574 1.48226 -3.3171 -0.600495 -0.0406272 0.475227
228 1 0.827494 0.144453 0.0329818 0.284134 -3.37533 0.0588032 0.0560328 0.129291
308 1 0.826618 0.191075 0.0328838 2.31386 -3.26827 -1.09713 -0.753494 0.0760863
305 1 0.825358 0.166325 0.0109943 1.73462 -3.37188 0.0961609 0.422688 0.106399
307 1 0.855671 0.168303 0.0350402 0.488713 -3.35226 -0.335154 0.0973178 0.127266
306 1 0.855042 0.191307 0.0131745 0.671275 -3.27062 0.246794 0.258685 -0.118549
232 1 0.887277 0.147514 0.0377402 0.386123 -3.33935 0.0921815 0.230746 -0.133773
230 1 0.920992 0.149593 0.0186116 0.571761 -3.24947 -0.802215 0.299013 -0.032451
309 1 0.887758 0.170657 0.016738 0.456089 -3.34914 0.120761 -0.0903358 -0.176843
311 1 0.91785 0.171494 0.0410243 2.38986 -3.31624 -0.942126 0.859056 -0.0831875
317 1 0.00539014 0.179443 0.0238548 1.30293 -3.33768 -0.00633305 0.65456 0.258907
236 1 0.947331 0.152998 0.0427058 0.841338 -3.27504 0.350571 -0.596035 0.459028
234 1 0.979588 0.155762 0.0232783 0.433831 -3.30499 -0.101659 -0.14351 0.200974
313 1 0.946609 0.174211 0.0192038 1.04106 -3.33529 0.178877 0.695346 0.243577
30636 1 0.951955 0.153184 -0.00260991 0.76931 -3.23594 0.12517 -0.0762485 0.669856
242 1 0.0692516 0.208256 0.0102879 0.936651 -3.3488 -0.358526 0.0160965 0.229225
318 1 0.0334783 0.204944 0.0288973 0.497656 -3.28911 -0.315464 0.259676 -0.917071
323 1 0.0623012 0.230771 0.0327123 0.71011 -3.28571 -0.0265852 -0.116595 -0.231848
321 1 0.0336276 0.227799 0.00740593 0.648519 -3.33445 -0.0619052 0.195464 -0.0682413
248 1 0.096659 0.21118 0.0347336 2.2266 -3.27485 -0.641844 -0.103685 0.363609
246 1 0.128618 0.212256 0.0174478 8.40358 -3.25199 0.640285 -0.300941 -1.01657
325 1 0.0924867 0.234523 0.0126995 1.3861 -3.23794 0.438788 -0.565994 -0.238432
327 1 0.123699 0.235306 0.0338333 5.59039 -3.19628 -0.424065 0.434611 0.656401
252 1 0.128667 0.190969 0.0432679 8.2518 -3.27302 -0.217242 0.269189 -0.213015
329 1 0.157377 0.237497 0.0169865 7.3344 -3.24015 -0.574473 0.155358 0.197807
331 1 0.156406 0.21685 0.0406866 8.88899 -3.28161 0.171224 -0.186932 0.21932
333 1 0.171732 0.204656 0.0139753 2.13641 -3.2252 -1.1301 0.733428 0.186136
335 1 0.19548 0.207361 0.0393634 6.44888 -3.22022 -0.323057 0.633539 0.565021
339 1 0.211095 0.203271 0.0128498 0.930625 -3.23347 0.356745 -0.429449 -0.492849
344 1 0.23695 0.22573 0.0143938 2.46657 -3.2339 -0.195489 0.804014 -0.158493
334 1 0.196545 0.233334 0.0136564 1.7161 -3.26242 -0.0434775 -0.112306 0.534896
343 1 0.252797 0.198691 0.00780365 0.806035 -3.31187 -0.669552 -0.346537 -0.0985259
1941 1 0.236587 0.205006 0.0388824 0.629532 -3.27787 -0.0708426 -0.159379 -0.0373673
347 1 0.292101 0.193144 0.00466516 0.407377 -3.22063 -0.0954199 0.122188 0.19125
348 1 0.276854 0.222964 0.0113896 0.919133 -3.2664 0.204997 0.413457 -0.577036
1945 1 0.276262 0.201712 0.0333222 0.533902 -3.26974 0.184048 0.16047 0.205132
1946 1 0.303044 0.228863 0.0340355 1.44457 -3.31303 -0.0844963 -0.125232 0.591516
1942 1 0.261439 0.232566 0.0376764 1.05974 -3.29283 0.10447 -0.300456 0.60329
1953 1 0.357636 0.195044 0.0270916 2.35217 -3.27281 0.427253 -0.594114 0.33662
1949 1 0.316021 0.197259 0.0316154 0.742822 -3.28261 0.30532 0.108479 -0.0186832
352 1 0.316625 0.217007 0.00815972 1.27875 -3.2907 0.552493 0.702888 -0.480754
1950 1 0.343741 0.222835 0.0315026 0.837185 -3.28194 0.275835 0.0438862 0.429969
356 1 0.361632 0.214336 0.00539404 0.858818 -3.28741 -0.612412 -0.160836 -0.553597
1954 1 0.388352 0.218657 0.0290867 0.816396 -3.26766 -0.322853 -0.322962 0.0684661
360 1 0.402862 0.208188 0.000247724 7.66895 -3.26069 -0.30288 -0.176107 0.441846
439 1 0.426989 0.232719 0.00179081 7.61006 -3.30311 0.333146 -0.0457534 0.483391
1958 1 0.427123 0.210707 0.0258594 6.69976 -3.35587 0.488982 -0.103353 0.0932922
435 1 0.386044 0.237796 0.00513718 0.883625 -3.23578 0.408656 0.268171 0.203056
364 1 0.463457 0.211375 0.00671444 1.45313 -3.25297 -0.480028 0.607481 -0.18599
2041 1 0.460027 0.235175 0.0283614 8.11236 -3.38341 -0.386395 -0.202075 -0.154238
1962 1 0.4903 0.211294 0.0297437 2.09198 -3.29486 -0.267052 0.475629 0.266842
443 1 0.490174 0.238683 0.00773738 2.10472 -3.21685 -0.93488 -0.584824 0.0325861
1965 1 0.520778 0.190957 0.0326655 0.760151 -3.34118 -0.143882 0.103566 -0.0429581
367 1 0.551471 0.19297 0.011801 0.220567 -3.35353 -0.00525073 0.108195 -0.02181
368 1 0.517937 0.214972 0.00797991 1.80977 -3.24219 0.358948 0.0187129 0.725513
1966 1 0.547509 0.216636 0.0336151 0.758887 -3.31419 -0.60008 0.413747 0.095227
1969 1 0.576466 0.196142 0.0355091 0.548731 -3.30381 0.500019 -0.39334 0.43813
371 1 0.610989 0.198306 0.0141482 0.752555 -3.32681 -0.0269473 -0.0159965 0.445275
372 1 0.58118 0.218534 0.0147765 0.953136 -3.28909 -0.417361 0.462471 -0.57851
1970 1 0.6045 0.221983 0.0383782 0.443703 -3.31374 0.399567 -0.129165 0.082544
1973 1 0.635433 0.201242 0.0408988 0.772207 -3.36723 0.13546 0.0599026 -0.105459
375 1 0.668473 0.203269 0.0201857 0.487796 -3.34141 0.288378 0.298504 0.0883676
376 1 0.637176 0.225647 0.0174299 0.801061 -3.34786 0.258553 -0.276137 0.260194
374 1 0.669338 0.227247 0.995885 1.04665 -3.29428 0.625823 -0.844071 0.468786
1974 1 0.667474 0.226692 0.0419489 0.687926 -3.31288 -0.62854 -0.16438 -0.323742
379 1 0.731852 0.205889 0.025089 0.606483 -3.34035 -0.189524 0.247511 0.0168104
380 1 0.698286 0.228051 0.0207039 0.379594 -3.34431 -0.0363382 -0.109365 0.192807
378 1 0.729278 0.22842 0.00116988 0.815386 -3.33128 0.231635 0.333735 0.304462
377 1 0.702471 0.203886 1.00111 0.469935 -3.36329 -0.0603382 0.104589 -0.366185
384 1 0.757635 0.230806 0.0278309 0.248247 -3.34092 -0.0525403 0.0830233 -0.241211
381 1 0.763049 0.208775 0.00536578 0.257887 -3.31443 -0.056746 -0.0397297 -0.147082
383 1 0.790542 0.20979 0.0300641 0.489469 -3.3494 0.267999 0.341113 0.145245
382 1 0.789259 0.232462 0.00737543 0.572423 -3.35495 0.180042 0.417984 -0.0231056
388 1 0.818713 0.236697 0.0322505 0.880485 -3.29926 -0.574196 -0.393832 -0.236334
385 1 0.822795 0.2138 0.00869025 0.697825 -3.3088 0.172092 0.434555 0.268645
387 1 0.848379 0.214972 0.0332951 0.802101 -3.29497 0.602696 0.542213 0.307709
392 1 0.877808 0.238852 0.0354447 1.29168 -3.33468 -0.657089 0.184513 0.628278
386 1 0.847684 0.239776 0.0115449 0.833801 -3.3807 0.345548 -0.116756 -0.111999
312 1 0.881386 0.193649 0.0376718 0.278466 -3.28424 0.012901 -0.131698 -0.104129
310 1 0.912628 0.194967 0.0181128 1.25744 -3.31696 0.717679 0.348643 0.305957
389 1 0.88094 0.218157 0.0142551 0.566664 -3.31142 -0.0271319 -0.100397 0.225642
391 1 0.906902 0.216653 0.0404222 1.99084 -3.32184 0.300985 0.68977 -0.269295
316 1 0.941478 0.199879 0.0416324 1.26181 -3.2939 -0.265685 -0.531334 0.321309
30720 1 0.0055453 0.204735 0.00297388 0.660187 -3.30992 0.354676 -0.0894429 0.382476
393 1 0.943294 0.22274 0.0219043 1.96167 -3.26887 -0.693221 -0.552083 -1.07095
314 1 0.973977 0.201416 0.0242374 0.88138 -3.27853 -0.152732 -0.42066 -0.801386
397 1 -0.00137138 0.226994 0.0246348 1.05274 -3.30651 0.466235 0.0421652 -0.0818182
30795 1 0.974102 0.223428 1.00066 0.890096 -3.34506 -0.399152 0.749934 -0.0633125
324 1 0.0298642 0.250684 0.0285146 0.771452 -3.35324 -0.479123 0.233682 -0.254395
322 1 0.0611995 0.252133 0.00921097 1.16976 -3.30957 -0.386046 0.927045 -0.210196
403 1 0.0552415 0.276176 0.029638 0.427531 -3.35377 0.21413 0.255387 -0.417203
401 1 0.0273111 0.277575 0.00660966 2.21807 -3.26815 0.0831292 -1.22507 -0.722847
328 1 0.0897603 0.256253 0.0339292 1.12347 -3.29023 0.0226142 0.159606 -0.47586
326 1 0.120333 0.258194 0.0124487 0.399691 -3.28456 -0.133589 0.706789 0.286043
405 1 0.0873522 0.280118 0.0074814 1.36373 -3.29286 0.000911861 -0.571004 1.09666
407 1 0.113286 0.283019 0.0333046 1.28601 -3.33737 0.249525 -0.43349 -0.292536
336 1 0.179741 0.24325 0.0421005 8.2335 -3.21232 0.504662 -0.193692 -0.464038
332 1 0.145599 0.260703 0.036166 6.1311 -3.33229 0.143605 0.605918 0.385837