ITEM: TIMESTEP
12250
ITEM: NUMBER OF ATOMS
32000
ITEM: BOX BOUNDS pp pp pp
4.8382732467891332e+00 7.6161726753210914e+01
-2.8092698186087546e+00 8.3809269818608897e+01
-3.4132812580982090e+00 8.4413281258097470e+01
ITEM: ATOMS id type xs ys zs c_csym c_peratom fx fy fz
4 1 0.0229066 0.042284 0.0352115 7.46068 -3.30919 -0.229318 0.361266 0.660823
3 1 0.0361717 0.0114343 0.0281811 1.58259 -3.31662 0.0982859 0.191211 0.34292
2 1 0.0345657 0.0348739 0.00687053 0.295372 -3.29795 -0.203432 0.0810093 -0.346255
1 1 0.00717356 0.0112429 0.00550144 0.420964 -3.3247 0.132839 0.272417 -0.117997
78 1 -0.0062214 0.0420848 0.0125748 6.5589 -3.12772 1.47874 -0.297137 -0.713649
5 1 0.0462954 0.00516228 -0.00213193 1.14445 -3.25545 0.0926263 -0.40545 0.884181
8 1 0.0610012 0.0377307 0.0329031 0.746879 -3.31185 0.262929 -0.360207 -0.0526736
12 1 0.0992303 0.0321868 0.0254855 0.362597 -3.38043 0.274449 -0.137392 0.0972304
6 1 0.0726065 0.0299721 0.00207087 0.623567 -3.33412 0.0576353 0.0514049 -0.162001
7 1 0.0749726 0.00512122 0.0242973 0.95104 -3.36053 -0.258062 0.193673 -0.0130989
16 1 0.139057 0.0266259 0.0201428 1.5061 -3.3471 -0.271797 -0.388104 -0.0375666
1614 1 0.164511 0.0265913 0.0464368 1.55979 -3.28048 -0.241666 -0.173512 -0.521485
95 1 0.16463 0.0486174 0.0193834 1.49512 -3.25774 -0.12703 0.364274 0.290823
1613 1 0.137956 0.000356189 0.0424642 0.39578 -3.36448 0.279993 0.234708 -0.272987
20 1 0.177889 0.0145348 0.0156295 7.07992 -3.30698 -0.577482 0.195915 -0.571698
99 1 0.200985 0.0398841 0.0150378 6.99589 -3.27251 -0.0532539 0.158499 0.438807
24 1 0.227698 0.0167102 0.0166359 1.70364 -3.29952 0.0700547 -0.241012 -0.467068
1618 1 0.200346 0.0170645 0.0399526 7.6922 -3.24686 0.237095 0.421635 -0.115031
1701 1 0.226978 0.0420067 0.0398484 6.82467 -3.33797 -0.214724 0.255533 -0.361751
103 1 0.255416 0.039853 0.0154608 1.21136 -3.22961 -0.467561 0.647812 0.134948
28 1 0.285243 0.0197274 0.0162763 0.630684 -3.3348 -0.0299903 -0.212366 0.378408
1622 1 0.255287 0.0204712 0.0378883 0.731387 -3.22672 0.335429 -0.442122 0.447674
1705 1 0.280966 0.0453296 0.0396715 0.608198 -3.30423 0.00855817 -0.224731 0.0709801
32 1 0.338377 0.0237782 0.0170262 0.666294 -3.34181 0.289348 -0.345142 -0.146761
107 1 0.309003 0.0465554 0.0169562 0.694564 -3.27706 -0.0585421 -0.306652 -0.419752
1626 1 0.312094 0.022177 0.0394276 0.502408 -3.31678 -0.583969 -0.144597 0.0912726
1709 1 0.335696 0.0490204 0.0377054 1.24305 -3.26542 0.304 -0.296089 0.535012
36 1 0.392364 0.0243491 0.0161782 0.531911 -3.25799 0.0266898 0.579572 0.258836
111 1 0.363132 0.0497798 0.0158492 1.34064 -3.30407 0.316969 -0.416183 0.122245
1633 1 0.39534 0.999123 0.0399278 0.658272 -3.26376 0.0474041 0.0616159 -0.325372
1630 1 0.365971 0.02044 0.0406245 2.76251 -3.24574 -0.342616 0.824942 -0.196587
1713 1 0.390839 0.0484141 0.0388054 0.312019 -3.38995 -0.126867 -0.0367865 -0.153756
40 1 0.446456 0.0272443 0.0121816 0.933451 -3.26928 -0.0705924 0.123309 0.517081
115 1 0.417954 0.0505361 0.0142122 0.316702 -3.2957 -0.2222 -0.271956 0.32432
1634 1 0.419283 0.0252635 0.0374185 0.174062 -3.35627 0.217963 0.208508 -0.034063
1717 1 0.444608 0.0533989 0.0363838 1.49845 -3.28046 0.271961 -0.944499 0.0344152
35 1 0.422256 0.00148401 0.0127733 5.99164 -3.32126 0.119795 0.0276058 0.160859
1637 1 0.447518 0.00234132 0.0364624 0.991528 -3.25662 0.110417 0.358517 -0.0968359
44 1 0.496884 0.0271934 0.0080677 0.917394 -3.36076 0.28079 -0.211044 0.465516
119 1 0.470119 0.0527341 0.0119978 1.01048 -3.27461 0.436655 -0.292988 0.04208
1638 1 0.472427 0.0286405 0.0360826 1.4281 -3.32888 0.0470681 -0.298782 -0.466508
1642 1 0.527682 0.0281338 0.0308585 0.420677 -3.32822 0.0181735 -0.470281 -0.0587399
48 1 0.556009 0.0281599 0.00611613 1.29895 -3.26592 -0.512045 -0.250067 -0.443715
47 1 0.554529 0.00488422 0.0282852 2.70208 -3.30482 0.164988 0.090835 0.195525
52 1 0.582417 0.0302579 0.0263116 0.968272 -3.26587 0.221085 -0.305633 0.712584
51 1 0.61471 0.00804458 0.0240564 0.864609 -3.3238 -0.178696 0.121343 -0.175651
49 1 0.588308 0.00413009 0.998955 7.76032 -3.24503 0.0857563 0.350209 0.17999
56 1 0.639545 0.0331095 0.0259423 0.7647 -3.29704 0.247768 -0.323195 -0.354191
60 1 0.696684 0.0355147 0.0261143 0.881714 -3.35076 -0.0713673 -0.385606 -0.190353
55 1 0.670451 0.00885929 0.0232839 0.568825 -3.33041 0.203689 0.161744 0.302123
1654 1 0.667506 0.0335257 0.0472222 0.766359 -3.35305 0.263132 0.0816268 0.199009
54 1 0.668566 0.0321383 0.00117757 0.445289 -3.30098 0.179887 0.118277 0.0816896
64 1 0.751456 0.036477 0.0272514 0.47766 -3.29946 0.0262926 0.583392 0.0938723
58 1 0.723708 0.0357698 0.001503 1.03091 -3.36068 0.303689 -0.127333 0.187566
59 1 0.725388 0.0126749 0.0278706 1.1924 -3.25412 -0.337588 -0.399093 -0.428306
61 1 0.753606 0.013441 0.00727629 2.39068 -3.27626 0.24695 -0.132785 -1.092
63 1 0.78229 0.0119461 0.0286833 1.38347 -3.32377 0.283936 0.591788 -0.103632
68 1 0.808116 0.0390136 0.0276049 0.726957 -3.28842 0.116626 -0.545716 0.080626
65 1 0.814658 0.0150039 0.00627201 1.49825 -3.28308 -0.273655 0.106605 0.294605
62 1 0.779679 0.0383745 0.00692326 2.1815 -3.29151 0.256859 -0.535152 -0.764193
72 1 0.865925 0.0406035 0.031104 1.74983 -3.22525 -0.833451 0.11823 0.728704
66 1 0.837256 0.0420019 0.00755911 2.03425 -3.30904 0.144871 -0.851199 -0.472453
67 1 0.840458 0.0153831 0.0308977 1.51384 -3.30186 -0.488087 0.186113 -0.00463662
69 1 0.86653 0.0157882 0.00921552 0.693853 -3.30615 -0.226172 0.0237234 -0.621472
70 1 0.888927 0.0422469 0.00933031 1.5775 -3.22695 1.21323 -0.329226 -0.538589
76 1 0.915127 0.0443924 0.0350735 0.557973 -3.35619 -0.102403 -0.160608 -0.0385154
73 1 0.917317 0.0195426 0.0128329 1.95415 -3.21709 0.740164 0.27289 0.572648
71 1 0.889014 0.0171213 0.0353154 0.682158 -3.2733 0.00634229 -0.0564105 0.18709
75 1 0.946438 0.0216268 0.0372339 2.2878 -3.23716 -0.893811 -0.510899 -0.0202114
74 1 0.944138 0.0446382 0.014243 2.1158 -3.2769 0.0825487 0.0207584 -0.278846
80 1 0.972122 0.043832 0.0350179 2.66118 -3.14482 -0.160996 0.481305 1.50714
79 1 0.997602 0.0186924 0.0374335 7.27287 -3.31215 -0.335449 0.151183 -0.406138
77 1 0.968492 0.020032 0.0122842 6.79366 -3.25531 0.18949 -0.787933 -0.307808
83 1 0.0502811 0.0673313 0.0395556 6.83261 -3.35532 0.00477921 0.17572 0.128113
81 1 0.0234393 0.0663663 0.0141551 5.93552 -3.33152 -0.48246 -0.046452 0.0426678
84 1 0.0259584 0.0941821 0.041103 1.27405 -3.25722 0.640666 0.2529 0.379919
82 1 0.0497464 0.0898838 0.0169406 2.96422 -3.27071 -0.190713 0.128667 -0.212761
89 1 0.0983796 0.0552324 0.00116414 0.50537 -3.33616 -0.237287 0.14255 0.280617
88 1 0.0762488 0.0933391 0.0400448 2.96567 -3.27477 -0.365997 -0.0983097 0.347357
85 1 0.0601916 0.0596739 0.00825871 0.419454 -3.28969 0.36024 -0.0968002 0.140819
87 1 0.0902207 0.0627926 0.0335398 0.88556 -3.30261 -0.753723 -0.318576 -0.0859605
92 1 0.111991 0.0882232 0.0360269 1.20005 -3.24224 0.794311 0.330862 -0.464618
86 1 0.0879432 0.0850812 0.0101032 0.572027 -3.30439 0.0760382 -0.0964884 -0.00847302
91 1 0.126661 0.0587682 0.0255069 1.38849 -3.28151 -0.25554 -0.619177 -0.0104283
96 1 0.151311 0.0820264 0.0282918 0.738054 -3.26518 -0.584756 0.45879 -0.288545
90 1 0.125837 0.0808978 0.00322199 0.709547 -3.28871 -0.82004 0.082471 -0.0384088
94 1 0.160395 0.0739265 0.996308 1.14978 -3.25415 0.493525 -0.340669 -0.0763931
1697 1 0.187559 0.0514302 0.0468092 1.13579 -3.35286 0.421901 0.117639 -0.302012
100 1 0.186263 0.074882 0.0210403 1.06546 -3.28347 0.75687 -0.169975 0.218442
1698 1 0.214903 0.0745852 0.0468546 0.740081 -3.33414 -0.395001 0.488543 -0.423911
104 1 0.22598 0.0651902 0.0151462 7.87481 -3.35182 0.00754201 -0.0200507 0.443148
183 1 0.250451 0.0900968 0.0160088 6.80119 -3.33469 0.173637 0.0108527 -0.0645625
1785 1 0.277366 0.0945417 0.0382882 7.36749 -3.33027 -0.172494 -0.346934 -0.128028
108 1 0.279821 0.0659961 0.014594 0.942009 -3.27593 0.0493002 0.735896 0.620023
1702 1 0.252096 0.0669385 0.0414358 7.08402 -3.2815 -0.0130167 0.437934 -0.832968
112 1 0.334684 0.0706494 0.0139568 0.212847 -3.31256 -0.141442 0.220921 0.0118761
187 1 0.306812 0.0929105 0.0136366 0.376041 -3.33162 -0.177304 -0.3103 0.151402
1706 1 0.30574 0.0701514 0.0393444 0.899516 -3.36424 0.100549 0.374442 -0.247991
1789 1 0.332798 0.094803 0.0374755 0.507317 -3.35097 -0.322157 -0.131579 0.00275532
116 1 0.389967 0.0716077 0.0140626 0.606495 -3.30851 -0.389327 0.341987 0.216205
1710 1 0.361524 0.0732695 0.0394451 1.01603 -3.33327 -0.0462416 -0.185947 -0.518423
1793 1 0.38835 0.0970627 0.0363702 0.555786 -3.34064 -0.47999 -0.256786 0.156366
191 1 0.359219 0.0953316 0.0125715 0.496891 -3.3519 0.20949 -0.0331025 0.272506
120 1 0.443647 0.0764449 0.0146392 1.03728 -3.26668 -0.0326693 -0.152405 -0.31542
195 1 0.413577 0.0957486 0.0132743 0.703284 -3.285 -0.0238762 0.51663 0.197736
1714 1 0.416633 0.0737884 0.0374377 0.300902 -3.27817 -0.449976 0.116613 -0.0754945
123 1 0.526562 0.0490733 0.00557049 2.51197 -3.32138 -0.381561 0.301032 0.141207
124 1 0.498705 0.0739282 0.0083817 2.02746 -3.32208 0.0802519 0.181568 0.484416
1718 1 0.473844 0.0744229 0.034981 1.64889 -3.31401 -0.035173 0.214232 0.0942018
199 1 0.47161 0.0991909 0.0128576 1.73458 -3.37983 -0.0985597 0.0445854 0.0584902
1801 1 0.496559 0.100269 0.0385479 3.44792 -3.28567 -0.279006 -0.148988 -0.694092
1722 1 0.525382 0.0767263 0.0326773 0.861081 -3.33893 -0.173863 -0.00388121 -0.127094
1721 1 0.501383 0.0502481 0.0322911 1.21727 -3.29254 -0.428581 0.25514 -0.261481
127 1 0.579612 0.0545135 0.00527315 0.42676 -3.27806 0.25387 -0.0876958 -0.0400728
128 1 0.550857 0.0743557 0.00797176 1.79613 -3.28532 -0.039458 0.729225 -0.282953
1726 1 0.577496 0.0778784 0.0307856 1.01928 -3.32358 0.800664 -0.109616 -0.407619
1725 1 0.553832 0.0521995 0.0294961 0.609213 -3.30598 -0.16821 -0.117156 0.369871
131 1 0.608818 0.0554143 0.0275221 0.484187 -3.31481 -0.228181 0.287225 0.0938855
132 1 0.606337 0.0780467 0.0059126 0.827093 -3.32727 -0.0947695 0.310095 0.222859
1730 1 0.607761 0.0805531 0.0527937 1.19525 -3.33101 -0.159439 -0.452144 -0.42618
136 1 0.636678 0.0790963 0.0267097 0.855379 -3.28685 -0.289525 0.168222 -0.24439
1733 1 0.637793 0.056786 0.0472893 1.01718 -3.29945 0.219184 -0.0707358 0.766885
1729 1 0.581959 0.0517309 0.0521314 0.961844 -3.32179 -0.0384113 0.399241 -0.31643
1737 1 0.69784 0.0591702 0.0501391 2.0139 -3.30431 -0.957531 -0.506238 -0.194706
135 1 0.66892 0.0577795 0.0262609 1.60962 -3.29723 -0.377026 -0.0945791 -0.00982587
140 1 0.691887 0.083122 0.0261001 1.10128 -3.3153 0.245977 -0.203338 -0.329613
1734 1 0.662666 0.0829192 0.0496517 1.72595 -3.33456 0.606977 -0.372114 0.288949
137 1 0.69445 0.0571953 0.00113948 0.418098 -3.28601 0.123874 0.113909 0.127043
139 1 0.721337 0.0598383 0.0259976 0.642881 -3.32059 0.248776 -0.134763 -0.345069
144 1 0.747554 0.0830237 0.024341 1.15721 -3.35377 0.149315 -0.0226724 0.573989
1738 1 0.719036 0.0843019 0.0493774 0.84148 -3.26121 0.761032 0.0687947 -0.397595
141 1 0.751827 0.0609337 0.00114003 0.955734 -3.31377 -0.257894 -0.586863 0.238768
138 1 0.721833 0.0813896 1.00103 0.326197 -3.2919 -0.0569755 0.0208138 0.197715
145 1 0.80713 0.0625965 0.00412882 0.568068 -3.34511 0.280932 -0.0362115 -0.137654
143 1 0.779542 0.0626471 0.0253383 1.45862 -3.28883 -0.67215 -0.0359112 0.489268
148 1 0.805086 0.0858462 0.0284401 0.788767 -3.30124 -0.173867 -0.0685655 -0.684705
142 1 0.777667 0.0839592 0.00108302 0.858729 -3.28819 -0.0936781 0.208611 0.540219
147 1 0.836868 0.0631769 0.0288765 0.831652 -3.25417 -0.410057 0.0729907 0.270829
149 1 0.864748 0.0643705 0.00773536 1.19851 -3.17786 -0.697476 0.548627 -0.198383
152 1 0.859406 0.0874603 0.0287924 1.82744 -3.29313 0.328342 0.722013 0.371289
146 1 0.832976 0.0878423 0.00628249 0.305985 -3.34682 -0.119038 -0.171321 -0.0762842
151 1 0.888775 0.0674865 0.0319034 0.823453 -3.29785 0.306195 0.122677 -0.0796615
150 1 0.889139 0.0932521 0.00883171 1.49691 -3.27464 -0.488803 -0.708159 0.123377
156 1 0.915119 0.0919171 0.0330779 0.58006 -3.33718 -0.0184341 0.073178 0.190308
153 1 0.918187 0.0681135 0.00889713 1.3966 -3.29804 -0.313252 -0.0330196 0.56995
155 1 0.942495 0.0694439 0.0352077 0.694823 -3.31244 -0.0424162 -0.458345 0.369482
154 1 0.946133 0.0914287 0.012972 1.21582 -3.30642 -0.395396 0.261964 -0.239477
159 1 0.9988 0.0717252 0.0401376 3.41776 -3.27887 -0.137165 -0.679264 -0.372339
160 1 0.968099 0.093945 0.0380619 0.821042 -3.32009 0.533348 0.0940305 -0.121631
158 1 1.00249 0.0936493 0.0169979 6.62385 -3.3059 -0.444019 -0.191558 0.121657
157 1 0.973696 0.0666143 0.014672 2.70168 -3.23537 -0.219065 1.23221 0.16564
163 1 0.0545199 0.1195 0.0453463 6.2447 -3.31795 0.0992188 -0.108507 -0.0393676
162 1 0.0568997 0.143837 0.0245488 4.45801 -3.25494 -0.340311 0.0179913 -0.463431
164 1 0.0233195 0.142015 0.0412718 1.16566 -3.30974 -0.0363116 0.215425 0.193546
161 1 0.0298672 0.118498 0.0202525 5.5386 -3.32948 -0.086887 -0.0698861 -0.0106978
165 1 0.0723008 0.115397 0.0168664 2.71504 -3.21531 0.691332 0.131446 0.70222
168 1 0.0788847 0.144621 0.0487204 6.31174 -3.28342 0.633977 0.215647 -0.00501336
167 1 0.101653 0.118207 0.0443195 8.28065 -3.3503 -0.0768277 0.21759 0.0412172
172 1 0.11501 0.145972 0.0294373 8.13818 -3.28863 0.164635 -0.224235 0.274864
166 1 0.0895321 0.143218 0.00767008 8.86734 -3.22129 0.310025 -0.494273 -0.682603
169 1 0.111722 0.112953 0.0122063 5.68998 -3.25134 -0.770579 -0.0562893 -0.199522
171 1 0.137918 0.116688 0.0322282 6.65243 -3.27105 0.130394 -0.115905 0.509484
176 1 0.161247 0.142287 0.0305127 6.42672 -3.28 0.108137 -0.777916 0.18536
170 1 0.135389 0.136178 0.00350267 2.71679 -3.26422 -0.438157 0.357628 -0.0913222
173 1 0.147217 0.106772 0.00215111 1.78367 -3.21543 0.751608 -0.528898 0.226359
174 1 0.172645 0.129247 0.000244666 0.806053 -3.2993 0.221781 -0.222627 0.0941061
179 1 0.213893 0.0985748 0.021896 0.841593 -3.32118 -0.288122 -0.01461 0.36993
175 1 0.175452 0.107107 0.0309328 3.70293 -3.22741 -0.512355 -0.114926 -0.91525
180 1 0.199393 0.129846 0.025266 0.82866 -3.31676 0.00533588 0.250504 -0.00256796
1781 1 0.240034 0.102765 0.0468212 1.35196 -3.30556 -0.527735 -0.50765 -0.514864
184 1 0.237618 0.124603 0.0208493 1.04217 -3.29629 0.354313 -0.505396 -0.625101
1782 1 0.265285 0.128394 0.0416212 1.72965 -3.29091 0.24188 -0.342462 0.19227
188 1 0.277894 0.114534 0.0123953 8.14744 -3.33758 -0.490701 0.364921 0.105082
1786 1 0.302367 0.117762 0.0367059 6.28643 -3.28949 0.0773421 0.391313 -0.332266
192 1 0.330305 0.118277 0.0143241 0.827589 -3.28673 0.0829551 -0.0808844 -0.35363
267 1 0.301171 0.140649 0.0105127 7.98119 -3.24849 -0.235806 -0.0529175 0.732586
1869 1 0.32758 0.142044 0.0353007 6.67121 -3.35082 -0.00564595 0.380744 -0.123701
196 1 0.384434 0.119087 0.0136256 0.688318 -3.30612 0.423174 0.177377 -0.19267
271 1 0.357801 0.140973 0.0118674 1.52946 -3.2922 -0.652291 0.52268 -0.150663
1790 1 0.357207 0.119781 0.0375433 0.588997 -3.29502 0.364741 -0.206057 -0.311624
1873 1 0.382885 0.144325 0.034445 1.1148 -3.25792 0.112449 -0.327995 0.673965
1797 1 0.443624 0.0974014 0.0378268 0.868692 -3.34328 -0.0950447 0.424742 -0.23493
200 1 0.43857 0.120367 0.012835 1.01956 -3.34087 0.319042 0.533355 0.209445
1794 1 0.413054 0.120866 0.0370357 0.31875 -3.37551 0.202179 0.164849 0.000833504
275 1 0.411874 0.145563 0.0148662 1.83618 -3.26913 -0.0298432 -0.928557 -0.749127
1877 1 0.437761 0.14581 0.0400846 2.20374 -3.28957 -0.0276439 -0.299386 -0.540098
1798 1 0.466907 0.123311 0.035266 1.39692 -3.32876 -0.203042 -0.33727 0.397968
279 1 0.463603 0.146964 0.0139225 0.805345 -3.32495 -0.0870629 -0.289246 -0.378298
203 1 0.524813 0.0997574 0.00965088 0.823869 -3.33341 -0.598313 0.0646525 -0.0599403
204 1 0.49519 0.123876 0.0118376 0.701506 -3.29072 -0.440999 -0.228977 0.0138781
1802 1 0.521448 0.122976 0.0338638 1.17538 -3.28139 0.341175 0.510105 0.0569832
283 1 0.518274 0.15001 0.0123011 0.654801 -3.31363 0.388448 -0.390893 0.0114649
207 1 0.577217 0.100958 0.00642775 0.964791 -3.30727 -0.285071 -0.0564576 0.0744125
1805 1 0.552065 0.101654 0.0306374 0.934689 -3.27957 0.173584 -0.0425447 0.375651
208 1 0.550198 0.125893 0.0105647 0.717576 -3.31462 -0.440071 0.145871 -0.127497
1806 1 0.577233 0.128513 0.0316335 1.1117 -3.28851 -0.290508 -0.177232 0.15493
1809 1 0.602227 0.105512 0.0284102 2.89326 -3.25903 0.158014 -0.810823 0.745529
211 1 0.630529 0.10449 0.00839884 1.95843 -3.31866 0.315589 -0.249699 -0.360961
212 1 0.603448 0.127207 0.00634397 1.21557 -3.28671 -0.324284 0.38972 0.189695
1810 1 0.629385 0.128413 0.0314889 1.27005 -3.25007 0.206541 0.501202 -0.176732
1813 1 0.632853 0.103886 0.0493166 1.59078 -3.29713 0.215161 -0.055034 0.21021
215 1 0.663607 0.103784 0.0259332 2.52649 -3.27634 -0.35652 -0.03733 -0.164972
1817 1 0.691964 0.105989 0.0496214 0.393709 -3.30764 -0.437098 -0.0484376 0.251296
216 1 0.656284 0.130327 0.0102105 6.34245 -3.24736 0.0792853 0.0807218 -0.191425
220 1 0.689466 0.126588 0.0248833 6.17198 -3.24362 -0.202519 0.352857 -0.00844354
1814 1 0.661676 0.126104 0.0508658 2.38919 -3.37637 0.00284246 0.24778 -0.228712
219 1 0.719083 0.107513 0.0263727 0.960871 -3.26592 0.120243 -0.640565 0.112117
1821 1 0.748685 0.107996 0.0510832 1.07154 -3.35376 -0.506631 -0.0390238 -0.0758863
224 1 0.746506 0.129898 0.0275352 0.689062 -3.27974 0.0129943 0.468188 0.108602
1818 1 0.716848 0.130343 0.0499912 0.769546 -3.31512 0.837045 0.00700584 0.0584433
221 1 0.747656 0.106924 0.00453438 1.25454 -3.26768 -0.12683 -0.189767 -0.720455
223 1 0.773704 0.107855 0.0264747 0.525298 -3.26794 0.327653 -0.425673 -0.0271465
228 1 0.800094 0.131857 0.0262599 0.84493 -3.27536 -0.132014 0.593691 0.428758
225 1 0.803128 0.10881 0.00368941 0.197208 -3.29975 -4.35246e-05 -0.144851 0.196158
222 1 0.774342 0.13013 0.00305538 0.378259 -3.29129 -0.0602446 0.412675 0.0284672
227 1 0.828756 0.111439 0.0291969 0.582495 -3.31542 0.466496 -0.0876571 -0.117266
229 1 0.858497 0.113641 0.0074149 0.387834 -3.35818 0.0439105 0.15407 -0.117941
232 1 0.856481 0.135583 0.030041 0.965081 -3.35636 0.0433329 0.15856 -0.315625
226 1 0.826924 0.134551 0.00574436 1.65795 -3.28786 1.11831 -0.123769 -0.182117
231 1 0.886209 0.115262 0.0306177 0.840975 -3.32812 -0.0696466 0.0370062 0.293706
235 1 0.94097 0.117257 0.0346844 0.214583 -3.31277 0.351246 -0.0401802 0.0414574
236 1 0.913023 0.138589 0.0323096 0.734295 -3.37039 -0.145206 0.476789 -0.24071
233 1 0.915901 0.115345 0.00984222 0.391969 -3.27765 -0.186728 0.428156 0.079159
234 1 0.942315 0.139937 0.0103995 0.271762 -3.34201 -0.0412713 0.251585 0.0401267
230 1 0.886995 0.140866 0.00572679 1.82376 -3.33421 0.195111 -0.840928 0.28762
239 1 0.996165 0.117563 0.0408939 1.04088 -3.3191 0.0509719 0.234697 -0.433913
240 1 0.968582 0.141993 0.0360879 0.357392 -3.38493 -0.106097 -0.0272985 0.197631
238 1 0.999061 0.140929 0.0166998 0.423638 -3.33685 -0.313163 0.0876521 -0.0874768
237 1 0.970942 0.117845 0.0123214 1.41951 -3.31669 0.244179 -0.242635 0.538851
243 1 0.0488097 0.166834 0.0451619 1.49805 -3.3304 0.692573 0.259273 0.080177
248 1 0.0540341 0.189506 0.0216468 1.19617 -3.33975 0.369777 -0.138907 0.369089
244 1 0.0228908 0.189676 0.0406041 1.16783 -3.28655 0.249151 0.162675 0.417661
242 1 0.0290767 0.189997 0.997749 1.09547 -3.25089 0.667608 -0.51216 0.316729
241 1 0.0269043 0.165836 0.0187187 0.538665 -3.30877 -0.199061 0.0747981 0.0943832
245 1 0.0610642 0.165447 -0.000241469 1.18737 -3.3245 -0.20237 0.240298 0.149421
247 1 0.085252 0.167777 0.0252708 0.478036 -3.33989 -0.120821 0.450741 0.379106
249 1 0.120754 0.169084 0.00763999 7.1488 -3.30987 -0.390667 -0.152255 0.0380577
252 1 0.113695 0.193437 0.0298167 0.660548 -3.30811 -0.186569 -0.537665 -0.0515749
246 1 0.0883777 0.191884 0.00412028 0.435616 -3.34838 0.118519 -0.211306 0.0244999
251 1 0.145131 0.170317 0.0317599 6.37048 -3.21692 -0.619518 0.177572 0.0332325
256 1 0.171904 0.193618 0.0332845 6.60579 -3.35601 -0.0672553 0.162649 0.261847
253 1 0.159946 0.16017 0.00551877 1.03889 -3.28465 0.503834 0.405118 -0.688302
250 1 0.147506 0.192544 0.00759843 7.02899 -3.347 0.28636 0.0834774 0.458926
259 1 0.226187 0.153401 0.0235848 1.68231 -3.29651 -0.268756 0.730508 -0.163131
255 1 0.189669 0.162835 0.0302388 3.1213 -3.27172 -0.0763251 0.002772 -0.992786
260 1 0.214251 0.189735 0.0299887 2.13776 -3.22572 -0.489094 -0.60657 -0.630675
257 1 0.198852 0.151437 -0.00256787 1.98541 -3.30487 0.219282 0.396467 0.860087
254 1 0.187536 0.185566 0.00624521 0.908787 -3.37624 -0.0881669 -0.209135 -0.484401
258 1 0.225653 0.177977 -7.92118e-05 0.437624 -3.3475 -0.490371 0.131106 0.162975
263 1 0.264721 0.150765 0.0189186 1.4452 -3.29313 -0.291614 -0.361282 -0.508903
264 1 0.25109 0.182792 0.0230351 1.16176 -3.33539 -0.150507 -0.199118 0.0952988
268 1 0.287464 0.176532 0.0170454 1.66168 -3.28521 0.374756 -0.101676 -0.0134756
1866 1 0.314174 0.174738 0.0402348 0.918335 -3.28547 0.735525 0.46249 0.116331
272 1 0.325481 0.163293 0.0102413 7.08469 -3.31785 0.545562 0.689086 0.310843
1949 1 0.338946 0.199474 0.0418706 0.873574 -3.3297 0.643382 -0.0190282 0.18135
347 1 0.314433 0.200602 0.0186134 1.01098 -3.34371 -0.401485 -0.0740358 -0.437413
276 1 0.382389 0.166326 0.0111144 0.799903 -3.31375 -0.315427 0.486909 -0.401607
351 1 0.351071 0.190777 0.0108396 7.49592 -3.3299 0.146649 -0.170403 0.151299
1870 1 0.353886 0.168407 0.0332167 7.16717 -3.36011 -0.162733 -0.312096 0.0588516
1953 1 0.380637 0.192568 0.0347819 7.17767 -3.26666 -0.469567 -0.245186 0.0733147
355 1 0.408799 0.193301 0.0128498 1.42636 -3.32459 -0.54949 -0.0498332 -0.646668
1874 1 0.407024 0.168655 0.0347272 1.29175 -3.23375 0.490438 0.230586 0.562741
280 1 0.435636 0.168558 0.0133527 0.527739 -3.28336 0.345962 0.585739 -0.218471
359 1 0.461915 0.195083 0.0116697 0.59411 -3.33251 -0.41176 -0.518459 0.0802666
1878 1 0.463773 0.169071 0.03721 0.812562 -3.31826 -0.232845 0.482742 -0.10548
1957 1 0.433446 0.19342 0.0356062 0.268513 -3.31521 0.240347 -0.0422213 0.051767
284 1 0.490215 0.171314 0.0145093 0.858935 -3.3084 -0.170551 0.216697 -0.542487
1881 1 0.492005 0.146071 0.0358524 0.983912 -3.27636 0.389551 0.399193 0.0128196
1882 1 0.517626 0.173063 0.0370708 0.484058 -3.29028 -0.149987 0.134754 0.275708
1961 1 0.487591 0.196335 0.0362635 0.26093 -3.33801 -0.0179176 -0.0157584 0.180127
363 1 0.51335 0.1979 0.0129219 0.643897 -3.30734 0.21477 0.0964235 -0.0548165
287 1 0.573892 0.151661 0.00941212 0.435711 -3.33728 -0.300774 -0.0657237 0.454715
288 1 0.542155 0.174675 0.0138614 1.25624 -3.29677 0.439208 -0.0317801 -0.648559
1885 1 0.546139 0.150343 0.0359318 0.585243 -3.34535 0.00294725 -0.213488 -0.271013
1886 1 0.570755 0.174747 0.0352173 0.395088 -3.29995 0.0554256 0.0605127 -0.0573653
367 1 0.568769 0.198771 0.012866 0.454099 -3.30609 -0.412142 0.0365172 -0.362599
1965 1 0.540058 0.199306 0.0355215 1.20739 -3.34524 -0.0250677 0.0804896 0.488569
1889 1 0.60108 0.152859 0.0339309 0.581111 -3.28011 0.101857 0.00667413 -0.441624
291 1 0.629336 0.15179 0.00891438 1.08513 -3.35363 -0.520933 0.407445 -0.0661561
292 1 0.598333 0.176058 0.0109415 0.302833 -3.33391 0.113675 -0.038822 -0.0826188
1969 1 0.593445 0.200827 0.035057 0.704665 -3.27899 0.654769 -0.0700211 0.160136
1890 1 0.623312 0.177923 0.0349257 0.551455 -3.29584 0.374689 0.270904 -0.20239
1893 1 0.654496 0.155428 0.0336585 5.77899 -3.34018 0.0628974 -0.221265 -0.0478579
295 1 0.681425 0.157267 0.0107779 6.95255 -3.33094 -0.167545 -0.12739 0.287633
296 1 0.651245 0.178609 0.0100654 0.510635 -3.2735 0.345324 -0.272526 0.447898
1894 1 0.677751 0.18178 0.0361794 7.57875 -3.31028 0.467907 -0.414378 -0.284551
1897 1 0.689375 0.151348 0.0482513 6.62675 -3.34389 -0.207559 0.364855 -0.14908
300 1 0.707196 0.183081 0.0133425 8.16324 -3.24342 -0.375949 -1.11728 0.147736
299 1 0.716001 0.149674 0.0241617 7.94144 -3.25034 0.110531 0.89331 0.488986
304 1 0.741505 0.176597 0.0252996 7.43723 -3.31311 0.409235 0.239533 -0.165177
1898 1 0.715668 0.176784 0.0481975 7.08682 -3.33921 -0.467517 0.0966677 -0.0912806
303 1 0.772085 0.156415 0.0271132 0.8855 -3.31357 0.387661 -0.167965 -0.158201
308 1 0.804087 0.1815 0.02716 1.37434 -3.33353 -0.643238 0.438492 0.0462176
305 1 0.802489 0.156371 0.00282493 0.553593 -3.25392 -0.263685 0.450482 0.631753
302 1 0.775428 0.179313 0.00352126 6.81089 -3.25629 -0.133533 -0.604245 -0.0965694
309 1 0.857916 0.159784 0.0053565 0.498342 -3.30073 -0.268193 0.228078 -0.198964
307 1 0.830506 0.160873 0.0275382 1.59833 -3.27201 -0.219799 -0.626624 -0.151225
312 1 0.85748 0.18436 0.027336 0.566995 -3.32291 0.130968 0.191119 0.316335
306 1 0.830755 0.184099 0.0030467 0.704514 -3.27034 0.435017 -0.300685 0.0768942
311 1 0.884579 0.162635 0.0282923 0.762412 -3.28598 0.191794 -0.471268 0.434654
315 1 0.938674 0.164399 0.0305788 1.97993 -3.31089 0.268441 -0.277383 0.686208
316 1 0.912926 0.185947 0.0298326 0.445511 -3.32275 -0.0773839 0.593653 -0.0423541
313 1 0.914007 0.163441 0.00536221 0.813538 -3.27044 0.487252 -0.418165 0.262393
310 1 0.886703 0.183689 0.00463319 0.734873 -3.26101 -0.2799 0.552544 -0.133585
319 1 0.994274 0.167879 0.0402366 1.30514 -3.28413 0.538765 -0.788243 -0.380603
320 1 0.966966 0.189213 0.036201 0.288336 -3.28053 0.06376 0.0579872 0.181628
317 1 0.969791 0.165588 0.0134776 0.4725 -3.27964 0.241028 -0.368682 -0.137771
318 1 0.997295 0.189429 0.0172336 0.595398 -3.32609 0.151025 0.133525 -0.362926
314 1 0.943463 0.187729 0.00699332 1.51228 -3.26754 -0.567858 0.00367905 0.511607
323 1 0.0269785 0.214604 0.02077 0.622635 -3.23648 0.135914 -0.576405 -0.026232
328 1 0.056174 0.239595 0.0219638 1.2143 -3.25028 -0.132696 -0.211155 0.54256
1922 1 0.0250287 0.237679 0.041241 1.49623 -3.288 -0.0100442 0.0222829 1.03941
321 1 0.00418028 0.21282 0.995269 0.544311 -3.31353 -0.48927 0.00765968 0.139923
322 1 0.0319403 0.236828 0.999672 0.645544 -3.315 -0.493234 0.207004 -0.422223
325 1 0.0597465 0.214129 0.00402545 2.16757 -3.27628 -0.222365 -0.100754 -0.923093
327 1 0.0846451 0.217298 0.0260927 1.38269 -3.22279 0.260151 -0.669959 0.459027
332 1 0.113355 0.2384 0.0255764 2.06198 -3.25562 0.0187844 0.749694 1.2014
329 1 0.116519 0.214475 0.00775909 1.21778 -3.24356 0.145316 -0.0418148 -0.964904
326 1 0.0880574 0.237356 0.00323016 1.06454 -3.24163 -0.283894 0.73813 -0.404998
331 1 0.140555 0.216746 0.0315619 0.932595 -3.30729 0.678104 -0.18218 -0.144875
336 1 0.17061 0.240316 0.0312648 1.67086 -3.1878 -0.844293 0.170572 1.41426
330 1 0.144579 0.240322 0.00818818 0.420554 -3.25925 -0.0914661 0.172618 0.113014
333 1 0.173054 0.218116 0.0108125 7.35785 -3.30063 -0.121045 -0.880152 -0.194245
335 1 0.197581 0.216861 0.0364616 6.34162 -3.29526 -0.205924 0.528401 -0.288315
334 1 0.197679 0.241791 0.0138271 6.26304 -3.2156 1.03063 0.051982 -0.878617
340 1 0.223739 0.243517 0.03856 6.73356 -3.37751 0.25156 -0.289811 -0.177164
337 1 0.211351 0.211799 0.00563184 0.465043 -3.29873 -0.132898 -0.252392 0.0160721
339 1 0.238021 0.214609 0.0299234 1.1557 -3.30297 -0.00954729 0.0722939 0.373114
338 1 0.23487 0.237036 0.00718368 0.751521 -3.3039 0.371476 -0.179428 0.285024
343 1 0.276941 0.208865 0.0269253 2.21777 -3.34304 -0.283869 -0.435679 -0.440707
344 1 0.265024 0.239741 0.0325714 1.80137 -3.22505 -0.831156 -0.419734 -0.304419
342 1 0.273496 0.230232 0.0021638 0.5664 -3.32677 0.360374 0.0604095 0.0964971
341 1 0.248993 0.206794 0.00188875 1.68494 -3.2432 -0.173121 -0.711061 -0.209781
348 1 0.301805 0.231897 0.0243291 0.616275 -3.30998 0.280561 -0.0641113 0.169787
352 1 0.339615 0.225286 0.0199641 0.490912 -3.28322 -0.337803 -0.177192 0.0520642
356 1 0.374413 0.215784 0.0157852 7.7414 -3.2436 0.983407 0.287147 -0.487926
431 1 0.364429 0.249556 0.020542 0.434722 -3.24677 0.0252783 -0.0853807 0.230454
1950 1 0.364896 0.223671 0.0455397 1.69987 -3.32112 0.204167 0.292933 -0.199017
435 1 0.401149 0.242884 0.0149644 7.51222 -3.31095 0.636442 -0.572538 0.134138
1954 1 0.403963 0.218711 0.03762 6.59905 -3.30705 -0.170105 -0.0974637 -0.308415
360 1 0.432369 0.218278 0.0111402 1.26965 -3.29407 -0.0580082 -0.255749 0.646455
2037 1 0.428319 0.242474 0.0394652 6.51587 -3.28765 -0.319465 0.417828 -0.332664
439 1 0.457361 0.24464 0.0166058 1.80968 -3.28618 -0.507432 0.0126128 -0.255756
1958 1 0.45686 0.219862 0.0365816 0.432118 -3.30357 0.235088 -0.236195 -0.0188762
364 1 0.482606 0.220373 0.0131805 1.15676 -3.2759 0.552505 0.411832 0.00754781
1962 1 0.509682 0.222543 0.0375449 0.790613 -3.33955 0.498465 -0.215289 -0.282695
443 1 0.508121 0.246191 0.0134761 0.535373 -3.30628 0.0344064 -0.444226 0.515595
2041 1 0.482235 0.245886 0.0405917 1.52919 -3.21468 -0.0934028 -0.235955 -0.461256
368 1 0.541563 0.222568 0.0122607 1.14504 -3.25489 -0.964826 -0.436529 0.186717
1966 1 0.565588 0.22422 0.0362313 0.287566 -3.29585 -0.01851 -0.0990632 0.0770016
2045 1 0.536209 0.246068 0.0379152 0.329247 -3.32761 -0.0876991 0.191889 -0.368209
447 1 0.56383 0.246051 0.0124344 0.652418 -3.2756 0.296536 0.750122 0.192563
371 1 0.624595 0.200529 0.0103482 1.01862 -3.29018 -0.499486 0.261664 0.584025
372 1 0.595338 0.22445 0.0117527 0.584454 -3.31422 -0.353696 -0.166415 0.200548
1970 1 0.619535 0.224087 0.0358546 0.719576 -3.31422 0.166962 0.202466 -0.0131798
2049 1 0.592745 0.248078 0.0378549 0.641511 -3.30125 -0.392974 -0.237947 -0.157742
451 1 0.619685 0.248929 0.0137422 0.289996 -3.26613 0.0842698 0.0938008 -0.248208
1973 1 0.649181 0.203159 0.0363224 0.599834 -3.31954 -0.0970472 0.0383803 -0.342897
375 1 0.677855 0.204111 0.0129965 0.326795 -3.2981 -0.365477 0.180096 -0.368898
376 1 0.648551 0.22675 0.0112163 0.469964 -3.32656 0.157951 -0.146448 0.276481
1974 1 0.676658 0.2294 0.0351437 1.28096 -3.30518 -0.440593 -0.113375 0.0459453
2053 1 0.644286 0.249338 0.0361094 1.40877 -3.29262 0.499547 -0.0871109 0.647295
1977 1 0.703373 0.207052 0.0356849 7.46848 -3.23777 0.573444 -0.175528 0.261577
379 1 0.730174 0.206386 0.0133005 8.92958 -3.23584 1.01002 0.12712 0.00672825
380 1 0.704542 0.22946 0.0124018 0.874163 -3.2983 -0.18341 0.23775 -0.0637335
2057 1 0.705386 0.25115 0.0382133 6.95043 -3.25306 -0.07638 -0.392817 -0.506046
384 1 0.759829 0.229576 0.0128658 8.97359 -3.10212 -0.692832 -0.35373 -0.0792741
1978 1 0.735307 0.229598 0.0353606 7.79236 -3.22358 -0.839133 0.0724689 0.0737918