ITEM: TIMESTEP
7000
ITEM: NUMBER OF ATOMS
32000
ITEM: BOX BOUNDS pp pp pp
2.7046656632636950e+00 7.8295334336736346e+01
-1.3388970431979672e+00 8.2338897043197989e+01
-1.3453461827575168e+00 8.2345346182756998e+01
ITEM: ATOMS id type xs ys zs c_csym c_peratom fx fy fz
8 1 0.0502905 0.0267431 0.0260194 0.5818 -3.32379 -0.0375745 -0.368784 -0.273539
1602 1 0.0230069 0.0269836 0.0499502 0.816599 -3.31532 0.29634 -0.72649 -0.0331189
2 1 0.0264626 0.0248568 0.000854852 1.09438 -3.35285 -0.34083 0.164535 -0.197322
83 1 0.0240355 0.0511247 0.0238297 0.655792 -3.27696 -0.349106 -0.301998 0.0434039
1681 1 1.00006 0.0503792 0.0494582 0.405225 -3.31544 -0.121824 0.369915 -0.044641
12 1 0.0983848 0.0249062 0.0253211 0.50889 -3.27606 -0.000160377 -0.335985 -0.0729282
87 1 0.0752924 0.0507055 0.0238261 0.5091 -3.26966 -0.265782 -0.150407 0.233533
1606 1 0.0744652 0.0247808 0.049528 0.269226 -3.30247 -0.230094 0.00452399 0.246754
6 1 0.0755988 0.0259424 0.999073 0.64443 -3.31962 -0.599662 -0.642157 0.157942
16 1 0.151195 0.0235409 0.0258412 0.617802 -3.27064 -0.0695386 0.393059 -0.23256
1610 1 0.126376 0.0242906 0.0479106 1.24455 -3.31533 -0.344117 -0.0126309 0.719919
10 1 0.123917 0.0248625 1.00205 0.884085 -3.30176 0.0564985 -0.371739 -0.508164
20 1 0.201471 0.02477 0.0238869 0.584845 -3.27055 -0.430285 -0.255681 0.566753
15 1 0.177058 0.000887623 0.0256665 0.564506 -3.31589 0.15565 -0.276799 0.0268162
1697 1 0.200193 0.0505841 0.0486886 0.666518 -3.27029 0.241641 -0.152114 0.328639
14 1 0.174528 0.0261613 0.000279044 0.586539 -3.31514 0.138395 -0.218782 -0.0613888
24 1 0.25003 0.0255103 0.028124 1.38738 -3.27635 0.424712 -0.053783 -0.993346
1618 1 0.225255 0.0236968 0.0488942 0.740902 -3.25019 -0.805803 0.102219 0.6372
1622 1 0.277931 0.0246982 0.0510757 1.39443 -3.30233 -0.516005 -0.19207 -0.264425
23 1 0.2742 1.00018 0.0251775 0.392954 -3.33474 0.628997 0.24827 -0.162455
103 1 0.274176 0.0503352 0.0250913 0.579445 -3.32044 -0.149521 -0.250583 0.255168
19 1 0.227095 0.998141 0.0246167 1.15349 -3.31209 -0.715233 0.626742 -0.0438648
28 1 0.300569 0.0249017 0.0255546 0.319154 -3.33173 -0.223503 -0.30533 -0.317959
26 1 0.32538 0.0247692 -0.00103089 0.478434 -3.29169 0.244673 0.366331 0.276527
1705 1 0.300854 0.0492232 0.0497598 0.26551 -3.30515 -0.0265521 0.441434 0.150487
32 1 0.349583 0.0246476 0.0251739 0.180417 -3.34049 0.236104 0.0249869 -0.215723
111 1 0.373128 0.051612 0.0247063 0.685489 -3.32404 0.229657 -0.243666 0.122507
30 1 0.375881 0.0250534 0.00102663 0.517592 -3.33314 -0.0488866 0.0211083 -0.143353
36 1 0.399018 0.0266929 0.026089 0.895027 -3.3161 -0.0681264 -0.263693 0.0293145
115 1 0.425671 0.0489204 0.0245204 0.828682 -3.29074 -0.245348 0.434698 -0.0288004
33 1 0.399647 0.998907 0.999097 1.25522 -3.32332 -0.0568015 -0.150358 0.186832
113 1 0.400967 0.0494798 0.000396137 0.593507 -3.31475 -0.342923 0.293665 0.077543
40 1 0.450827 0.0267611 0.0252267 0.79329 -3.28007 0.0400919 -0.717346 -0.529487
119 1 0.474492 0.0506459 0.0245721 0.279981 -3.30408 0.0411102 -0.0592811 -0.0703592
1717 1 0.44949 0.048969 0.0501286 0.697502 -3.23638 -0.00575775 0.515183 0.11941
44 1 0.499863 0.0265543 0.0237862 0.518741 -3.34725 -0.14955 -0.493272 0.191117
121 1 0.501078 0.0503442 1.00029 0.781166 -3.28493 -0.278994 0.103394 -0.229155
48 1 0.549602 0.0243644 0.0245651 0.505973 -3.32198 0.112885 0.15416 -0.233455
1642 1 0.524652 0.0254417 0.0498025 0.145612 -3.29558 0.128413 -0.195174 -0.0107318
52 1 0.601569 0.0255967 0.0240916 0.501781 -3.31379 -0.359039 0.282816 0.292646
47 1 0.575864 1.00142 0.0249086 0.618679 -3.32563 -0.0113164 -0.108022 -0.182995
1646 1 0.574527 0.0266475 0.0485807 0.602909 -3.3621 0.151463 -0.0950272 0.150165
56 1 0.649176 0.0248028 0.0267599 0.532206 -3.33025 -0.131256 -0.176395 -0.625612
1653 1 0.64992 -0.00125615 0.052073 0.571398 -3.30132 -0.508381 0.386473 -0.586631
131 1 0.626288 0.0499485 0.0254445 0.419002 -3.29068 -0.318795 -0.059064 0.113811
50 1 0.623827 0.0259046 -0.00154132 0.984112 -3.21421 0.468607 -0.11244 0.607669
55 1 0.674935 1.00028 0.0256814 0.295085 -3.3691 -0.178957 -0.152996 0.0943797
60 1 0.700211 0.024573 0.0254356 0.362996 -3.28382 -0.284516 0.181451 0.40895
1657 1 0.700599 1.00202 0.0504861 0.953092 -3.32694 -0.293082 -0.446123 -0.20186
1654 1 0.672593 0.0252454 0.0505468 0.851967 -3.31583 0.44184 -0.0758132 -0.111335
1658 1 0.72627 0.0247999 0.0508817 0.511333 -3.31227 -0.0603451 -0.104624 -0.445636
64 1 0.751482 0.0236661 0.0249896 0.904393 -3.29174 -0.413746 0.299137 0.520296
143 1 0.773696 0.0506496 0.0237728 1.18874 -3.26163 -0.206878 0.12289 1.00327
59 1 0.724575 0.998698 0.024898 0.958518 -3.31561 0.343137 0.288103 0.373995
139 1 0.725819 0.0492463 0.0245466 0.578698 -3.31151 -0.160437 0.0898637 0.357107
141 1 0.750218 0.0510197 0.998989 0.949726 -3.30135 -0.674735 0.105707 0.24568
63 1 0.777357 0.000306944 0.0247217 0.88416 -3.33987 0.0930124 -0.183575 0.169516
1741 1 0.749239 0.0489557 0.0501534 0.41093 -3.33342 0.493582 0.309883 -0.108367
58 1 0.724016 0.0256904 0.00265341 1.27665 -3.2775 0.552441 -0.403598 -0.742974
61 1 0.750918 6.92916e-05 0.00251739 0.349564 -3.31954 -0.273904 -0.232632 -0.459551
68 1 0.799344 0.0272353 0.0244549 1.07508 -3.3211 0.320426 -0.338468 0.497564
147 1 0.827467 0.0516372 0.0249943 1.51388 -3.35844 -0.373089 -0.10405 0.0196937
72 1 0.849808 0.025528 0.0263026 0.381391 -3.30994 -0.220444 0.00795039 -0.200626
149 1 0.852973 0.0531423 0.000518807 2.10007 -3.31473 -0.566152 -0.332447 -0.0160925
70 1 0.871933 0.0247492 0.000118537 1.8833 -3.28895 0.346212 0.266004 0.0543756
1670 1 0.873151 0.0263185 0.0499196 0.549573 -3.31691 0.903459 -0.297676 0.0610457
76 1 0.8999 0.0262462 0.023131 1.01129 -3.35061 -0.199912 -0.146055 0.506612
1674 1 0.924386 0.0249572 0.0488405 0.781042 -3.32279 -0.0989538 0.355523 0.379268
75 1 0.926609 0.000569657 0.0242851 0.789047 -3.31262 -0.367977 -0.00230436 -0.086317
73 1 0.898498 1.00025 0.00104571 0.925823 -3.29277 0.590926 0.195977 -0.266288
4 1 -0.00344442 0.0235298 0.0237437 1.92437 -3.30233 0.846287 0.406962 0.17578
80 1 0.950502 0.0247735 0.0252083 0.267768 -3.26527 -0.15366 0.238436 -0.186542
159 1 0.974697 0.0494415 0.0247679 0.269052 -3.32484 0.125856 0.340958 0.0375199
79 1 0.972854 -0.000578708 0.0252303 0.679466 -3.22062 0.314149 0.0748505 0.136978
157 1 0.950965 0.0498302 -7.65151e-05 0.23718 -3.26439 -0.372995 0.540718 -0.0399589
1678 1 0.974693 0.0240034 0.04863 0.763252 -3.28074 0.31633 0.4032 0.48625
81 1 0.999107 0.0491413 -0.000508588 0.492661 -3.34739 0.217345 -0.0289151 -0.0440276
1685 1 0.046849 0.0511668 0.0485807 1.73464 -3.29852 0.691821 -0.197305 0.664301
1682 1 0.0260798 0.0771344 0.0514385 1.21123 -3.26987 -0.874029 -0.225201 -0.26051
88 1 0.0485156 0.0754514 0.0255615 0.608387 -3.35095 0.347068 0.39178 -0.322759
84 1 1.00085 0.0764594 0.024063 0.458241 -3.34006 -0.0467434 -0.258272 0.34441
1761 1 -0.00125084 0.100454 0.0499262 0.306728 -3.34103 0.28978 -0.014971 -0.0302208
163 1 0.0252676 0.10293 0.0244549 1.14338 -3.31707 -0.00666814 -0.665505 0.185654
161 1 1.00142 0.0997807 -0.000328105 0.527445 -3.31144 -0.469754 0.288169 -0.094512
1689 1 0.0984715 0.0492229 0.0489504 0.450557 -3.27941 0.277805 0.141562 0.385625
92 1 0.0986431 0.0742754 0.024829 0.334197 -3.3133 0.30443 0.446891 0.0442694
167 1 0.0754271 0.102156 0.0244548 1.06023 -3.33616 -0.0477427 -0.838715 0.0690694
1686 1 0.0747914 0.0741161 0.0499669 0.578104 -3.32862 -0.356365 0.258593 -0.0976038
91 1 0.12258 0.0487775 0.0253829 1.09877 -3.3162 0.748953 0.464425 -0.146811
93 1 0.147922 0.0487378 0.999371 1.17155 -3.30172 0.263494 0.378969 0.451644
96 1 0.152508 0.0747865 0.0258016 1.27855 -3.31769 -0.643688 -0.216347 -0.13965
1690 1 0.125447 0.0740932 0.0507572 0.524844 -3.31366 -0.024735 0.00677093 -0.268364
1693 1 0.151902 0.0501707 0.0496 0.437481 -3.3498 -0.291825 -0.166692 0.0707496
95 1 0.175079 0.0494257 0.0250016 0.407401 -3.30726 0.0375845 0.131509 -0.0985786
100 1 0.202967 0.0757278 0.0247535 1.26805 -3.31914 -0.671307 0.162281 0.352188
1694 1 0.17715 0.0756626 0.0517573 1.2721 -3.27601 0.0452377 0.0102362 -0.503573
99 1 0.224331 0.0502963 0.0258196 0.378536 -3.24721 0.640045 -0.241952 -0.109519
104 1 0.247693 0.0754823 0.0261355 0.689737 -3.32736 0.404097 -0.0321679 0.0434255
1781 1 0.249513 0.100737 0.0493733 0.88191 -3.2605 0.00210537 -0.761668 0.193496
1701 1 0.248723 0.0475993 0.0522301 1.63444 -3.29129 0.318301 0.75395 -0.237904
181 1 0.249775 0.102119 1.00035 0.821135 -3.29397 0.292585 -0.611988 -0.263255
107 1 0.325843 0.0490307 0.024613 0.444199 -3.28782 -0.109932 0.30857 -0.122976
108 1 0.298511 0.0730909 0.0260645 0.784805 -3.33001 0.441219 0.441419 -0.111005
1785 1 0.298558 0.0986044 0.0512599 0.759897 -3.30327 0.617121 0.111262 -0.467177
112 1 0.348252 0.0749028 0.0247189 0.355025 -3.34168 0.205053 0.283281 -0.0801929
191 1 0.37425 0.100189 0.0237625 0.278127 -3.32606 0.0254375 -0.137639 0.330306
1709 1 0.348488 0.0496461 0.0499987 0.378758 -3.31317 0.450262 0.218904 0.0916229
1710 1 0.373902 0.0762066 0.0513804 0.872039 -3.31941 -0.133021 0.0713681 -0.662057
109 1 0.350924 0.0489502 -0.000518845 0.743485 -3.30672 -0.58052 0.173316 0.040253
110 1 0.374213 0.0746141 0.999207 0.341342 -3.30821 0.465768 0.12226 0.42932
116 1 0.39959 0.0748516 0.0246529 0.378169 -3.36648 -0.116177 -0.00258389 -0.0911754
195 1 0.423281 0.100035 0.0252126 0.381101 -3.31365 0.430748 -0.0775953 -0.0576783
1714 1 0.42428 0.0733041 0.0490998 0.924012 -3.34262 0.209936 0.350047 0.0318996
120 1 0.449324 0.0755429 0.0254281 0.706157 -3.28495 0.0364936 -0.186624 -0.00082158
199 1 0.476989 0.0984195 0.0233183 2.23131 -3.29281 -0.475683 0.631764 0.598601
197 1 0.449482 0.0980503 0.00240103 1.95171 -3.28179 0.10519 0.573237 -0.528091
124 1 0.499246 0.0737878 0.0263678 1.42855 -3.27901 0.307455 0.0224156 -0.0691226
123 1 0.52575 0.0495076 0.0238677 0.576569 -3.24205 -0.0843348 0.275311 0.0405958
128 1 0.550657 0.0753651 0.0252339 0.643999 -3.32395 0.0369431 -0.158671 -0.385953
125 1 0.549686 0.0511019 -8.70222e-05 0.380025 -3.31764 -0.170182 0.0440998 -0.370135
1805 1 0.550477 0.101019 0.0468503 1.75979 -3.24444 -0.153663 -0.117358 1.05824
205 1 0.54856 0.0997092 0.997439 1.15028 -3.35734 0.399048 -0.072468 0.223856
127 1 0.575921 0.0506362 0.0229754 0.619472 -3.3609 -0.0363724 -0.200903 0.46659
132 1 0.601934 0.0744859 0.0263461 0.648961 -3.3286 -0.458206 0.0108147 -0.37352
126 1 0.57579 0.074631 -0.000353877 0.326244 -3.3458 -0.209394 0.324901 -0.0501846
207 1 0.574517 0.0997148 0.0248157 0.379452 -3.27944 0.315314 -0.235006 -0.630105
1726 1 0.576035 0.0752027 0.0505948 0.624968 -3.24862 -0.845898 -0.415117 -0.489066
209 1 0.600005 0.0991262 0.999587 0.450032 -3.33003 -0.369551 0.232858 0.454621
136 1 0.649078 0.0755127 0.0268209 0.417354 -3.33743 0.150761 -0.0304332 -0.620324
1730 1 0.624463 0.0755878 0.0516259 0.317711 -3.27898 0.0689032 -0.194916 0.138614
130 1 0.624734 0.0750107 1.00051 0.277923 -3.27735 0.505458 0.692759 0.0716667
135 1 0.674687 0.0499646 0.0241271 0.573866 -3.35841 -0.262306 0.115389 0.175855
140 1 0.700174 0.0759502 0.0265082 0.582927 -3.24005 0.15104 -0.356758 -0.291836
1817 1 0.698689 0.0982213 0.0507268 0.967842 -3.23807 0.585592 0.966305 0.111146
134 1 0.677035 0.0757888 0.00157192 1.04922 -3.37885 -0.49122 0.0346055 -0.380337
144 1 0.748207 0.0737753 0.0260471 0.92726 -3.29397 0.416638 0.275413 -0.217803
1738 1 0.724706 0.0752796 0.0503012 0.260617 -3.29813 -0.0702839 -0.192668 0.0850308
142 1 0.775589 0.0753275 1.00118 0.675618 -3.34873 -0.152293 0.290378 -0.106698
138 1 0.722867 0.0754695 0.00107785 1.26611 -3.34108 0.470809 0.00567591 -0.425438
148 1 0.800893 0.0752114 0.0285632 2.41484 -3.24949 -0.725212 -0.227592 -1.33577
225 1 0.799948 0.100836 1.00016 0.550514 -3.28489 -0.565361 -0.42957 -0.352599
227 1 0.822127 0.101205 0.0237364 1.48229 -3.21518 1.28997 -0.43688 0.0393978
1825 1 0.802046 0.0993916 0.0492626 1.47579 -3.2106 -1.2651 0.592196 0.538255
146 1 0.823474 0.0735257 0.999514 1.75366 -3.34066 0.242786 0.465256 0.220574
151 1 0.876056 0.0514211 0.0261339 0.576991 -3.33149 -0.428426 -0.138595 -0.0169685
152 1 0.851102 0.0781498 0.0257418 1.3516 -3.36492 -0.317697 -0.406595 -0.24741
1750 1 0.875254 0.0757472 0.050927 0.212918 -3.32804 0.159429 0.0492937 -0.242218
1829 1 0.848725 0.100934 0.0502382 0.211414 -3.32135 0.146139 -0.117032 -0.363192
155 1 0.927219 0.050171 0.0253714 0.705868 -3.32034 -0.557644 0.0866414 -0.22224
156 1 0.900136 0.0754114 0.0253819 0.253518 -3.30949 0.0684109 -0.0477125 -0.0433724
1754 1 0.925253 0.0748434 0.0483757 1.06166 -3.32159 -0.0015725 0.199344 0.404287
1833 1 0.899567 0.0999452 0.0507957 0.309514 -3.33647 -0.105782 -0.0694296 0.0773399
154 1 0.926151 0.0746317 0.000773653 0.571633 -3.37525 -0.226348 0.275335 -0.130687
160 1 0.95176 0.075712 0.0242298 0.483054 -3.28729 -0.397807 -0.11424 0.0437336
158 1 0.975479 0.0746712 -0.00144015 0.211711 -3.32666 -0.0043111 0.16961 0.234437
237 1 0.950369 0.099701 0.999238 0.294499 -3.35744 -0.399623 0.0727384 0.141465
168 1 0.0499866 0.126115 0.0257665 0.549162 -3.2346 0.165739 -0.305962 -0.23769
1762 1 0.0247314 0.125074 0.0501107 0.247742 -3.327 -0.17956 0.235866 -0.0324536
164 1 0.999475 0.125782 0.0248032 0.252012 -3.33911 -0.216991 0.0552116 0.226294
1765 1 0.0495834 0.0999544 0.0499461 0.476945 -3.30242 0.456425 0.419487 -0.0958076
165 1 0.0505107 0.0999627 -0.000402043 0.184535 -3.37289 0.011631 -0.0126251 0.121623
172 1 0.102804 0.12366 0.0237469 1.64943 -3.27951 -0.428053 0.30909 0.150124
1766 1 0.0755717 0.124313 0.0488785 0.577946 -3.34297 0.0715556 0.294744 0.363973
171 1 0.124938 0.0974124 0.0256559 1.66519 -3.3016 0.00799228 0.323805 -0.113515
176 1 0.151085 0.127304 0.0253117 1.52489 -3.28778 -0.518578 -0.595472 -0.535782
251 1 0.122796 0.150629 0.0248744 1.3842 -3.33939 0.404485 0.0247897 -0.143153
1773 1 0.149165 0.0987478 0.049318 1.06737 -3.29116 0.132832 0.289138 0.21255
1770 1 0.125812 0.125594 0.048444 0.861996 -3.35074 -0.0686233 -0.029694 0.454209
175 1 0.175931 0.0991767 0.0254883 0.797928 -3.36027 0.00923581 0.34497 -0.132666
180 1 0.198295 0.127332 0.0252084 1.68931 -3.28673 0.295238 -0.70793 -0.243089
1774 1 0.171778 0.124997 0.0502921 1.78973 -3.27236 0.478027 0.12734 -0.0732631
257 1 0.199607 0.151715 -0.00267007 0.733106 -3.38342 -0.0783235 -0.282427 -0.0578181
1777 1 0.199975 0.10153 0.0508459 0.854525 -3.36281 0.190551 -0.1502 -0.107523
179 1 0.224757 0.103064 0.0241838 1.46026 -3.27114 -0.51122 -0.53174 -0.0243766
183 1 0.275494 0.0990293 0.0265661 0.930115 -3.3027 0.0215733 -0.0956404 -0.492564
184 1 0.250626 0.124118 0.0238563 0.514596 -3.26177 0.0133688 0.701958 -0.00780957
259 1 0.224555 0.150135 0.0228605 0.281716 -3.37031 0.115071 -0.0859099 0.270749
263 1 0.274132 0.148804 0.025031 0.338039 -3.33092 0.126696 0.138871 -0.373905
1782 1 0.273904 0.123572 0.0492647 0.326836 -3.27042 0.519322 0.347892 0.0139897
1778 1 0.226267 0.124547 0.0480961 0.659502 -3.26508 -0.288534 0.509133 0.355203
187 1 0.323366 0.0994628 0.0226631 1.24035 -3.32221 0.1341 -0.0340209 0.68851
188 1 0.299942 0.124086 0.0227218 1.14898 -3.30713 0.230339 0.34752 0.863766
185 1 0.298368 0.0996358 -0.00188673 0.983002 -3.273 -0.0656718 -0.104595 0.242603
1789 1 0.348931 0.101484 0.0490506 1.07726 -3.35336 0.0809979 -0.25105 -0.000409885
192 1 0.35065 0.125262 0.0244901 0.261353 -3.32371 -0.289366 -0.204391 0.22473
1790 1 0.375603 0.125119 0.0494977 0.203996 -3.29948 -0.155445 -0.093932 0.181409
196 1 0.400708 0.125592 0.0246613 0.235594 -3.27709 -0.1182 -0.135635 -0.196778
194 1 0.425206 0.124464 1.00076 0.614514 -3.35238 0.35407 0.0846205 -0.127131
1794 1 0.423997 0.125265 0.0497758 0.268401 -3.31342 0.323407 -0.352249 0.139162
200 1 0.449518 0.126037 0.0260167 0.873671 -3.3148 0.264989 -0.608654 -0.0654804
279 1 0.475056 0.150136 0.0244587 0.267378 -3.32193 -0.121985 0.0282032 0.335135
198 1 0.471744 0.125323 0.000548241 1.60512 -3.3492 0.468728 -0.208131 0.00397647
277 1 0.449411 0.151806 0.998802 0.821168 -3.29773 -0.120407 -0.325257 0.253543
203 1 0.524662 0.0995724 0.0234945 0.539267 -3.28699 -0.0696594 0.316073 0.287867
204 1 0.500738 0.1253 0.0243069 0.361318 -3.36293 -0.176563 -0.136846 0.094425
283 1 0.525534 0.150808 0.0246597 0.342705 -3.31397 -0.122781 -0.133251 0.0895426
1802 1 0.5251 0.12461 0.049346 0.314252 -3.31937 -0.455547 0.0952275 0.13815
208 1 0.548822 0.125203 0.0248301 0.473994 -3.26806 -0.234286 -0.0626475 -0.0438805
1885 1 0.549463 0.149354 0.0505314 0.417158 -3.33403 0.126766 0.257745 -0.278489
281 1 0.499637 0.149511 0.00133612 0.702994 -3.32165 0.0449208 0.244427 -0.447653
202 1 0.525582 0.125502 -0.00153613 0.560805 -3.27162 -0.146174 -0.0631231 0.57212
212 1 0.600039 0.122891 0.0253476 0.644048 -3.2595 -0.157747 0.430893 -0.145488
287 1 0.573127 0.149045 0.0249795 0.724737 -3.30882 0.518756 0.362554 0.0898042
289 1 0.597978 0.149697 0.999454 0.820682 -3.37343 0.0494095 -0.115606 0.0115971
211 1 0.624727 0.0998349 0.0277587 0.735381 -3.25723 0.135308 -0.10599 -0.863958
1813 1 0.649327 0.0998041 0.0506895 0.126058 -3.2906 0.181375 0.0561593 0.448758
1810 1 0.6236 0.123837 0.0508236 0.300644 -3.30452 -0.0284738 0.130122 0.0169066
216 1 0.648801 0.125321 0.0265226 0.53544 -3.28043 0.352134 -0.478093 -0.384991
213 1 0.648989 0.102008 1.00073 0.711206 -3.36554 -0.0676935 -0.947323 -0.0651976
293 1 0.650049 0.149621 0.997748 0.878722 -3.28422 -0.143923 0.249637 0.439853
215 1 0.674974 0.0996957 0.027533 0.649821 -3.30073 -0.362479 0.343614 -0.911587
217 1 0.70065 0.100867 1.00035 0.411027 -3.31395 -0.505093 0.126636 -0.00737349
1814 1 0.673693 0.124386 0.0510751 0.275651 -3.35055 0.206048 0.0290537 0.12388
220 1 0.700624 0.12396 0.0268536 0.714175 -3.36053 -0.287656 0.0307826 -0.486549
297 1 0.701346 0.150062 0.00176197 1.0714 -3.27578 -0.350525 -0.478595 -0.483008
219 1 0.726084 0.0998023 0.0250454 0.379501 -3.35491 0.0138398 0.0664885 0.128167
223 1 0.772126 0.0987613 0.0256958 1.86347 -3.279 1.13339 -0.382922 -0.320434
224 1 0.751374 0.123132 0.0251826 0.71262 -3.23959 -0.984362 0.761912 0.203819
221 1 0.75079 0.100294 0.998268 1.18289 -3.28656 -0.71661 -0.507814 0.198963
218 1 0.724769 0.124145 0.999146 0.23537 -3.32995 0.0865215 0.0490716 0.122138
222 1 0.773121 0.124169 1.00083 0.618567 -3.25486 0.786488 0.315956 -0.513994
228 1 0.799391 0.124477 0.0254226 0.327217 -3.26418 -0.283051 0.31879 -0.264547
307 1 0.825689 0.150751 0.0267853 1.83076 -3.28475 -0.349163 -0.308415 -0.453149
231 1 0.876171 0.100831 0.0245649 0.785431 -3.31168 -0.483547 0.182309 0.141609
229 1 0.847301 0.099169 0.998688 1.27774 -3.35094 0.075677 0.391332 0.423061
232 1 0.848434 0.125272 0.0255315 0.370074 -3.31574 0.0645605 -0.186939 -0.439595
235 1 0.924449 0.101036 0.0260012 0.394965 -3.32221 0.321138 -0.0743957 -0.234425
236 1 0.899646 0.124878 0.0270558 1.11663 -3.25463 -0.48314 0.332578 -0.747734
1834 1 0.921563 0.126099 0.0509478 0.93504 -3.25123 0.910881 -0.205477 -0.149359
234 1 0.922282 0.126786 -0.000914875 1.61965 -3.28588 0.687211 -0.492399 0.437177
239 1 0.975395 0.099663 0.0239517 0.202553 -3.29903 -0.0260351 0.321452 0.0926776
240 1 0.94975 0.125393 0.0237411 0.735706 -3.29678 -0.696734 -0.587366 0.288555
1838 1 0.973315 0.123407 0.0505301 0.820028 -3.323 0.37475 0.540383 -0.0472565
243 1 0.0261815 0.149168 0.0261593 0.992762 -3.30532 -0.582356 0.534124 -0.16826
248 1 0.0505527 0.174318 0.0211411 2.09845 -3.33309 -0.0703149 0.297111 0.680179
1845 1 0.0517906 0.149577 0.0496628 0.92287 -3.27779 -0.395432 -0.170258 0.00324031
1842 1 0.0262449 0.173841 0.0498088 1.18255 -3.36017 -0.0429143 0.305955 -0.312118
242 1 0.0245017 0.175261 0.999119 0.535327 -3.26553 -0.216767 -0.0015051 0.543425
247 1 0.0751544 0.149562 0.0221794 1.28516 -3.33315 0.258109 0.0355597 0.629651
252 1 0.0975935 0.176747 0.0259605 1.66135 -3.25163 -0.0316066 -0.587304 -0.691693
246 1 0.0761606 0.174737 -0.00219542 1.14877 -3.29783 -0.228648 0.140042 0.13966
1849 1 0.0991028 0.150097 0.0508469 0.866301 -3.3686 -0.195955 -0.119661 -0.257405
1846 1 0.0728326 0.174129 0.0492882 0.895382 -3.29192 -0.0201084 0.373031 -0.080738
256 1 0.151798 0.175139 0.0225672 1.76711 -3.30363 -0.34836 0.0331875 0.594649
331 1 0.12541 0.199919 0.0267598 1.12071 -3.28216 -0.206563 0.0924893 -0.48111
1853 1 0.15053 0.153418 0.0489332 1.58207 -3.31858 -0.183968 -0.322227 0.0519734
1850 1 0.124749 0.175589 0.0476752 1.18747 -3.27736 0.0970862 -0.373833 0.429648
255 1 0.174775 0.150322 0.0237695 0.506091 -3.22106 0.141489 0.294464 -0.100202
260 1 0.197967 0.175009 0.0220894 1.49515 -3.32955 0.530162 0.247104 0.457166
337 1 0.197739 0.201027 1.00015 1.1771 -3.31576 0.6166 -0.0325329 -0.0794875
335 1 0.174396 0.201021 0.0260143 0.973688 -3.28228 0.163332 -0.203764 -0.0889444
1861 1 0.250673 0.150401 0.0496576 0.716705 -3.18918 -0.718808 -0.473899 -0.558419
264 1 0.248943 0.175334 0.0238932 0.330977 -3.24451 0.0443098 -0.120676 0.7383
1858 1 0.225145 0.17446 0.0491601 0.432942 -3.37613 -0.303616 0.0285201 -0.0615811
343 1 0.276065 0.2007 0.025087 0.335175 -3.31684 -0.0567679 -0.303054 0.0946411
262 1 0.272147 0.175917 0.00139965 1.90009 -3.26115 1.35581 -0.195558 -0.487464
261 1 0.249887 0.150683 -0.00145679 0.389167 -3.30806 0.295577 -0.637685 0.314811
258 1 0.225463 0.175071 0.998925 0.365642 -3.27925 -0.36794 0.334092 0.0732531
267 1 0.327995 0.150286 0.0247856 1.89579 -3.28494 -1.04824 -0.56001 0.48072
268 1 0.298754 0.173942 0.0258094 0.604914 -3.34059 0.241482 0.00124354 -0.173087
347 1 0.32529 0.199523 0.0267849 0.515574 -3.24296 -0.506763 -0.154927 -0.279112
266 1 0.325615 0.174531 1.00315 1.47026 -3.28972 -0.481117 0.0867481 -0.886225
345 1 0.301194 0.200473 0.00083086 0.320213 -3.36638 -0.118393 -0.0704274 0.0150579
271 1 0.376493 0.149066 0.0246014 0.612149 -3.33714 -0.57826 0.518297 0.0387603
272 1 0.348996 0.175167 0.025677 0.365523 -3.21906 0.816248 -0.0811387 0.319738
351 1 0.373926 0.199442 0.0248275 0.376617 -3.31242 0.288238 0.189175 -0.0177694
269 1 0.350654 0.149919 1.00009 0.176881 -3.26592 -0.111911 0.0967065 0.0455001
275 1 0.426088 0.150495 0.0246917 0.442383 -3.30409 -0.300808 0.0112721 0.140451
276 1 0.399538 0.175677 0.0262725 0.556796 -3.33185 0.296637 -0.151266 -0.28301
355 1 0.42674 0.202004 0.0254196 1.12335 -3.27536 -0.390429 -0.635487 0.182542
273 1 0.401875 0.150698 0.999746 0.623921 -3.28409 -0.566418 -0.189392 0.120202
353 1 0.401344 0.200319 1.00183 0.797461 -3.35504 -0.294576 0.135035 -0.392432
274 1 0.423572 0.174625 1.00063 0.716726 -3.28338 0.556644 0.555039 -0.0557252
280 1 0.449799 0.174678 0.025181 0.201156 -3.36859 0.294657 0.29508 0.0258302
278 1 0.474988 0.1758 -0.000313669 0.224878 -3.37235 0.129302 0.0475184 0.154549
284 1 0.500176 0.175222 0.024716 0.354925 -3.3227 -0.34975 -0.016156 -0.286854
288 1 0.549431 0.174458 0.0248043 0.526694 -3.31938 0.0496367 0.235192 -0.0814191
363 1 0.523104 0.200138 0.0235126 0.757512 -3.28691 0.282984 -0.0193669 -0.120008
1889 1 0.597288 0.14795 0.0496636 1.44068 -3.30026 0.58895 0.775721 -0.309801
367 1 0.576508 0.198713 0.0249853 0.766051 -3.32498 -0.0116529 0.0298256 -0.247947
1886 1 0.575281 0.175402 0.0488023 0.559164 -3.32914 0.0267185 -0.302204 -0.233832
292 1 0.604127 0.17594 0.024584 2.9306 -3.28785 -0.905764 -0.336647 -0.172504
291 1 0.624083 0.148121 0.0239486 0.635403 -3.3073 -0.188593 0.658401 0.279095
1893 1 0.649261 0.148908 0.0480195 0.638045 -3.28374 -0.0353076 0.0764239 0.525788
371 1 0.626111 0.201404 0.0232325 0.872045 -3.32494 -0.160837 0.00102834 0.278079
296 1 0.649133 0.17454 0.0234366 0.309084 -3.32571 -0.246164 -0.105491 -0.0610605
290 1 0.6253 0.173503 0.998816 0.60989 -3.27309 0.112564 0.199859 -0.0241816
295 1 0.67466 0.149215 0.024218 0.367299 -3.31718 -0.0172181 -0.0733049 -0.203018
300 1 0.700678 0.175076 0.0250983 0.435189 -3.29539 -0.134312 -0.128665 0.404198
377 1 0.701381 0.197971 -0.000735734 0.882221 -3.26779 -0.602898 0.855433 -0.0487994
299 1 0.724635 0.150004 0.0256351 0.388347 -3.30834 0.371025 -0.388369 0.187768
303 1 0.774512 0.149053 0.0243303 0.231429 -3.31828 -0.317045 0.342159 -0.106717
304 1 0.748522 0.174779 0.0246679 0.262929 -3.32889 0.434128 -0.123079 0.113461
1902 1 0.774637 0.173736 0.0505017 0.489887 -3.34008 -0.0151553 0.332428 -0.127128
379 1 0.725245 0.200206 0.0238294 0.499762 -3.29695 -0.000669998 0.0772215 0.461173
383 1 0.773781 0.199035 0.022408 0.931745 -3.31569 -0.136218 0.100041 0.624081
302 1 0.772765 0.174869 0.999486 0.192855 -3.33268 0.311451 -0.283621 0.0190322
298 1 0.72438 0.17515 1.00054 0.33033 -3.25434 0.44879 -0.480508 -0.570632
381 1 0.748117 0.199692 0.998224 0.328212 -3.20031 -0.224715 -0.220852 0.331097
308 1 0.799766 0.175232 0.0242529 0.17711 -3.38212 0.0545607 0.0833689 0.00606286
1905 1 0.79887 0.150062 0.0479236 1.33249 -3.29244 0.125344 0.00851836 0.735238
306 1 0.821597 0.175882 0.997196 1.8284 -3.26442 0.608268 -0.168046 0.765559
311 1 0.872896 0.150027 0.0252523 0.163457 -3.36846 0.0348337 -0.104066 -0.265167
312 1 0.847674 0.174514 0.0237918 0.645231 -3.33457 0.131242 0.526857 -0.0216121
315 1 0.922115 0.150587 0.0257116 0.604049 -3.36662 0.394778 -0.174379 -0.20636
1913 1 0.897774 0.151334 0.0508024 0.551989 -3.30651 0.00282327 -0.143535 -0.308303
316 1 0.897083 0.174536 0.0239622 0.551786 -3.29294 0.250837 -0.000263494 -0.0232476
319 1 0.971144 0.149221 0.0261752 1.36467 -3.23031 1.14997 0.403752 -0.305972
244 1 0.997827 0.17292 0.027021 1.47187 -3.33268 0.401446 0.137987 -0.480148
320 1 0.948784 0.175811 0.0251431 0.397888 -3.30334 0.16227 -0.263698 -0.224009
318 1 0.974662 0.174138 1.00034 0.238946 -3.36564 0.0520067 -0.0325048 0.205115
399 1 0.975715 0.199729 0.026161 1.08337 -3.3377 -0.419176 0.19668 -0.29861
1925 1 0.048732 0.202903 0.048575 1.46467 -3.25806 -0.0553381 -0.805917 0.131943
323 1 0.0233535 0.199137 0.0261332 1.1162 -3.342 0.0944465 0.0249032 -0.262343
325 1 0.0474804 0.201252 0.99926 1.15416 -3.34793 0.314515 -0.0103182 0.0649494
328 1 0.0487352 0.226648 0.0252821 0.602881 -3.23055 0.191345 -0.72996 -0.676708
403 1 0.0246307 0.249486 0.0233957 0.550303 -3.28534 -0.463262 0.619376 -0.010646
322 1 0.0235449 0.226504 0.999476 0.577461 -3.34551 0.174908 -0.353053 -0.0906593
324 1 -0.00139785 0.226866 0.0244316 0.677709 -3.33522 -0.0774149 -0.388749 -0.136764
405 1 0.0514008 0.249627 1.00038 0.428594 -3.33083 -0.155791 -0.0650992 -0.281572
327 1 0.0724441 0.201533 0.0241259 1.08206 -3.31828 0.244537 -0.320536 0.139778
332 1 0.099976 0.225708 0.0243321 0.401424 -3.36063 0.210492 -0.394818 0.400985
407 1 0.0741636 0.249312 0.0262706 0.354841 -3.27182 0.49198 0.142402 -0.344845
1929 1 0.098275 0.197731 0.0488154 1.6171 -3.23083 -0.153722 1.09392 0.129734
336 1 0.14891 0.223744 0.025068 0.69038 -3.29541 0.320597 0.450565 0.0604043
1933 1 0.150527 0.199195 0.0514119 1.31141 -3.30026 0.0144044 0.218497 -0.340199
1930 1 0.124864 0.225376 0.0497632 0.312499 -3.35665 0.0113042 -0.0533994 0.0845986
340 1 0.199698 0.22481 0.0245808 0.49053 -3.33836 0.153696 0.144367 0.0806778
339 1 0.226398 0.200533 0.0224892 1.23315 -3.32029 -0.629953 -0.0480065 0.720142
344 1 0.25274 0.224767 0.0235617 1.31919 -3.2742 -0.738881 0.261903 0.615797
419 1 0.225028 0.249576 0.025474 0.307088 -3.35312 0.183799 0.0199773 -0.153216
1938 1 0.225636 0.226195 0.0505069 0.669929 -3.26814 0.060717 -0.368948 -0.589222
2021 1 0.249684 0.248741 0.0504413 0.768553 -3.29081 0.46731 0.503048 -0.242639
1942 1 0.274882 0.224675 0.0493647 0.533976 -3.32833 0.183026 -0.0176594 0.398253
338 1 0.225093 0.225494 1.00101 0.770077 -3.31038 0.296674 -0.19621 -0.444317
342 1 0.275858 0.228349 0.000167053 1.62766 -3.19619 0.550588 -1.06159 -0.00528887
348 1 0.301729 0.225542 0.024966 0.320146 -3.34253 -0.183269 -0.04755 0.166551
425 1 0.301795 0.250966 1.00059 0.407172 -3.3072 0.0915845 -0.305063 -0.000196363
346 1 0.326216 0.225655 1.00034 0.427974 -3.28269 -0.418153 -0.173576 -0.443583
352 1 0.348562 0.222598 0.0240635 2.26485 -3.22134 0.662156 0.620157 0.276502
350 1 0.377074 0.226189 1.00154 1.2948 -3.33143 -0.188418 -0.364377 -0.383187
356 1 0.401117 0.225624 0.0250296 0.294257 -3.29682 0.0196586 -0.131966 0.0209488
354 1 0.425336 0.226931 -0.00155875 0.62628 -3.31863 -0.284419 -0.224934 0.135601
1957 1 0.450727 0.198768 0.050551 0.701466 -3.34639 0.188033 0.294169 -0.331644
359 1 0.474852 0.201458 0.0241372 0.595854 -3.33406 -0.253309 -0.621946 0.266902
360 1 0.449387 0.22646 0.0235072 0.511715 -3.26822 0.289442 0.114604 0.208744
364 1 0.499601 0.223496 0.0236624 0.749817 -3.26985 0.253721 0.761483 0.215835
1958 1 0.476136 0.225514 0.0505483 0.476957 -3.32007 -0.231541 -0.0888551 -0.352297
361 1 0.499147 0.201186 0.997687 0.616076 -3.28098 0.138335 -0.368712 0.532582
1965 1 0.549817 0.199591 0.0473 0.726185 -3.29205 0.351419 0.246249 0.400011
2041 1 0.500708 0.249826 0.0509889 0.814012 -3.29413 -0.187807 -0.00604215 -0.387577
1962 1 0.525169 0.224994 0.0479913 0.456114 -3.34523 -0.0580769 -0.0455545 0.11107
368 1 0.550502 0.223007 0.0241038 0.69087 -3.28243 -0.458225 0.43806 0.406668
362 1 0.525815 0.224478 0.998115 0.564145 -3.33747 0.0462842 0.0919663 0.0837777
372 1 0.597852 0.225276 0.0242167 0.945121 -3.32936 0.691178 -0.187078 -0.195334
447 1 0.573759 0.248668 0.0260111 0.917469 -3.29454 -0.0907555 0.388742 -0.673144
449 1 0.600171 0.249392 -0.00131751 0.480832 -3.36973 -0.260414 -0.0794664 0.414891
366 1 0.572433 0.22422 0.000794024 1.77462 -3.25448 0.919608 0.053851 -0.779022
1970 1 0.625697 0.226394 0.0484346 0.455869 -3.3267 -0.254945 -0.487596 0.0507162
376 1 0.652455 0.224181 0.023855 0.901931 -3.29223 -0.414227 0.176445 0.137898
451 1 0.62431 0.250454 0.0251687 0.564579 -3.26996 -0.212749 -0.159791 -0.798511
2053 1 0.648901 0.25014 0.0465947 2.56565 -3.23252 0.815744 -0.0918407 0.959093
370 1 0.625891 0.225173 0.999908 0.350158 -3.32569 -0.220503 -0.243817 0.221672
375 1 0.675485 0.198825 0.0242449 0.254942 -3.29903 0.0171312 0.0831755 0.096269
380 1 0.699528 0.224291 0.0264532 1.04307 -3.29251 0.491819 -0.017441 -0.487512
455 1 0.67696 0.249038 0.025134 0.892425 -3.29668 -0.0893962 0.178693 -0.168354
1974 1 0.675316 0.225881 0.0495925 0.618207 -3.31918 -0.306381 -0.155216 0.551488