ITEM: TIMESTEP
2750
ITEM: NUMBER OF ATOMS
32000
ITEM: BOX BOUNDS pp pp pp
9.7745952421929294e-01 8.0022540475780744e+01
-5.7243194376214035e-01 8.1572431943762254e+01
-5.7218228376654423e-01 8.1572182283766352e+01
ITEM: ATOMS id type xs ys zs c_csym c_peratom fx fy fz
8 1 0.0492987 0.0254529 0.0249371 0.245025 -3.33476 -0.113269 -0.0880275 -0.164327
83 1 0.024383 0.0515614 0.0241316 0.599312 -3.31366 0.274901 -0.386352 0.38935
1602 1 0.0251016 0.024347 0.0495775 0.249498 -3.30693 0.0662002 0.276089 -0.0604278
1685 1 0.0508291 0.0499711 0.0485939 0.931817 -3.33458 -0.371252 -0.00652263 0.331437
4 1 0.999045 0.0274881 0.0254893 0.970147 -3.34252 -0.111234 -0.598424 -0.2566
3 1 0.0239968 1.00107 0.0250686 0.300251 -3.31514 0.116705 0.0359086 -0.405089
12 1 0.0988708 0.0230352 0.0251128 0.30515 -3.32358 -0.360698 0.377858 -0.253931
87 1 0.0730885 0.0502724 0.0239231 0.786862 -3.31844 0.615865 -0.0242992 0.197773
1689 1 0.0989469 0.0493017 0.0486348 0.39691 -3.32047 -0.121557 -0.11353 -0.10083
7 1 0.0750392 0.998347 0.0234538 0.740251 -3.30252 -0.47133 0.457809 0.067271
1609 1 0.0990342 0.996836 0.0494838 0.934476 -3.29294 -0.200555 0.6048 0.463488
1606 1 0.0750329 0.0239946 0.0509376 0.772711 -3.37232 -0.0948012 -0.0194452 -0.318751
16 1 0.14704 0.0232762 0.0243308 0.777175 -3.34316 0.594375 -0.0635674 -0.212342
1610 1 0.122072 0.0226739 0.0489778 0.767682 -3.31175 0.357878 0.189063 0.274875
1693 1 0.149799 0.0497954 0.0484486 0.244844 -3.30454 -0.213207 -0.352947 0.0228941
11 1 0.122646 0.998061 0.0243607 0.476336 -3.26904 0.492383 0.211786 -0.103848
1613 1 0.149232 0.999414 0.047866 0.639197 -3.2968 0.0354575 0.166255 0.408279
15 1 0.176223 1.00137 0.0246617 1.1428 -3.28057 -0.395315 -0.416059 0.148941
20 1 0.202337 0.0261055 0.0243116 0.963935 -3.41125 -0.28914 0.167814 0.0711378
95 1 0.173173 0.049591 0.0240279 0.65232 -3.33653 0.653974 -0.376091 -0.0368645
1614 1 0.173475 0.0235256 0.0490847 0.957284 -3.3081 0.221162 0.824169 -0.293482
1697 1 0.201346 0.0508559 0.0483372 0.565995 -3.35137 -0.36843 -0.246118 -0.0440154
24 1 0.249511 0.0234203 0.0241607 0.964432 -3.28927 0.451735 0.35471 0.464917
99 1 0.228112 0.0518283 0.0257489 2.06673 -3.27515 -0.54122 -0.569283 -0.589067
1618 1 0.226261 0.0254733 0.0504704 0.444535 -3.34322 -0.275196 0.0347899 -0.173305
1701 1 0.251429 0.0498691 0.0489575 0.651349 -3.2614 -0.44316 0.164511 0.44486
18 1 0.227737 0.0244865 -0.000501376 0.694595 -3.31015 -0.883476 0.102697 -0.250014
101 1 0.250252 0.0486171 -0.000106713 0.564216 -3.31273 0.332154 0.509078 -0.218467
21 1 0.250292 -0.00130688 0.000190554 0.334357 -3.33798 0.325486 0.0840924 -0.348237
28 1 0.299512 0.0251563 0.0255912 0.352458 -3.31456 0.319169 0.114832 -0.549578
103 1 0.273041 0.0505113 0.0245209 0.948701 -3.32981 0.737018 0.0406094 -0.184061
1622 1 0.276174 0.0263947 0.0494748 0.444643 -3.31596 -0.34329 -0.279468 0.202111
1705 1 0.301887 0.0503305 0.0493603 1.13737 -3.34851 -0.493076 0.616583 0.154562
32 1 0.348228 0.0246569 0.0241148 0.504518 -3.35473 0.178205 0.201397 0.081545
107 1 0.324566 0.0511515 0.0243307 0.16171 -3.34156 0.0594224 -0.0279411 -0.0708564
1626 1 0.32458 0.0253708 0.0493239 0.301608 -3.30262 0.399396 0.0159176 0.143204
1709 1 0.34953 0.0504179 0.0492085 0.359382 -3.36331 -0.160467 -0.11153 0.243659
27 1 0.325914 -0.00123838 0.0243586 0.780742 -3.35122 -0.299655 0.37598 0.0698444
36 1 0.398893 0.0259821 0.0253929 0.204359 -3.30635 -0.000191772 -0.17565 0.00264615
111 1 0.375352 0.0521625 0.0264746 0.977477 -3.31648 -0.461975 -0.369716 -0.320695
1630 1 0.373199 0.0241422 0.0484223 1.10144 -3.33947 0.100323 0.304858 0.346763
1713 1 0.398929 0.0509079 0.0514913 0.597459 -3.28495 -0.108088 -0.0857247 -0.330759
31 1 0.375112 1.00046 0.0243125 0.19773 -3.32675 -0.247413 -0.104282 -0.180347
1634 1 0.424365 0.0259254 0.0500121 0.187004 -3.36767 0.138072 -0.328041 0.160289
40 1 0.449528 0.0276282 0.0260996 0.954591 -3.31599 0.237836 -0.555324 0.297403
115 1 0.42238 0.049234 0.0264093 1.48524 -3.31184 0.602986 0.541633 -0.289793
1717 1 0.451082 0.0500562 0.0510288 0.499431 -3.34949 -0.170155 0.27877 -0.0668709
37 1 0.450652 0.00283507 0.00178608 0.832672 -3.31652 0.181493 -0.403323 -0.391582
1637 1 0.449111 -0.000825424 0.0495856 0.746026 -3.35578 0.327465 0.411956 0.0208289
35 1 0.425506 0.00146679 0.0234495 0.553348 -3.32414 -0.203298 -0.0667619 0.445965
1638 1 0.475138 0.0261132 0.0512964 0.341273 -3.33687 -0.281734 -0.507392 -0.442954
38 1 0.475798 0.0279051 1.00168 0.852598 -3.31011 0.484291 -0.804568 -0.289033
44 1 0.500758 0.0268483 0.0260892 0.512303 -3.27751 0.064703 -0.796473 -0.204474
119 1 0.477581 0.0501456 0.0259109 1.02672 -3.24302 -0.593103 0.183636 0.0800704
123 1 0.524738 0.0495559 0.0241278 0.515043 -3.32412 0.259578 0.267067 0.492458
1721 1 0.499761 0.0492076 0.050692 0.339119 -3.30447 0.29692 0.61293 0.104774
1642 1 0.524909 0.0239007 0.051343 0.791639 -3.33317 0.493822 0.432592 -0.279956
42 1 0.525949 0.0252082 0.000922883 0.604235 -3.35178 -0.196226 -0.243177 -0.246984
48 1 0.55257 0.0259428 0.0229688 1.61741 -3.32502 -0.278225 -0.804938 0.55826
127 1 0.575298 0.0501744 0.0231319 0.676542 -3.28394 0.383817 -0.106748 0.653227
1645 1 0.550465 1.00157 0.0521902 1.32863 -3.33421 -0.00972999 -0.160016 -0.460371
1646 1 0.577388 0.0237737 0.0492302 1.07572 -3.28576 -0.787734 0.383763 0.0210085
1725 1 0.550664 0.0497414 0.0486338 0.465392 -3.41097 0.0166907 -0.051048 0.346809
52 1 0.5989 0.0233456 0.0236298 0.82213 -3.33439 0.573361 0.344074 0.238287
131 1 0.623079 0.0512774 0.0264182 1.40088 -3.36463 0.417777 -0.406851 -0.465659
1650 1 0.625214 0.0261193 0.0505508 0.510017 -3.34441 -0.287629 -0.036536 -0.42764
1729 1 0.599043 0.0502655 0.0504459 0.525543 -3.29548 0.0296966 0.080819 -0.431773
1649 1 0.599011 -0.00138506 0.051383 1.48314 -3.26796 0.929265 0.0960023 -0.756389
50 1 0.624102 0.0232879 0.998892 0.789724 -3.34263 0.239533 0.322914 0.219005
129 1 0.600106 0.0506118 0.998741 0.643761 -3.33163 0.304296 -0.262929 0.296694
56 1 0.65068 0.0253498 0.0229839 0.948932 -3.34411 -0.361896 0.565869 0.415253
135 1 0.67821 0.052443 0.0249185 1.33098 -3.3069 -0.490397 -0.612777 -0.160089
1653 1 0.648623 0.00196772 0.0492775 0.968629 -3.29302 0.50261 -0.104211 -0.0826224
1654 1 0.674864 0.0265048 0.0496609 0.465656 -3.36911 0.297631 -0.258376 0.0467427
1733 1 0.650812 0.0500324 0.0489102 0.55297 -3.32718 -0.2475 0.0165459 0.129689
55 1 0.675658 1.00261 0.0263048 0.986884 -3.32051 0.280518 -0.401936 0.17186
60 1 0.703286 0.0264266 0.0266186 1.17178 -3.31913 -0.816046 -0.232807 -0.265277
139 1 0.72479 0.0517673 0.024832 0.97705 -3.30378 0.588873 -0.116944 0.377435
1658 1 0.726287 0.0234196 0.0504871 0.665194 -3.2702 0.0428477 0.718954 0.361482
1737 1 0.701436 0.0509708 0.0497036 0.357662 -3.31757 -0.192828 -0.139296 0.303801
137 1 0.701185 0.0511121 1.00089 0.290987 -3.31925 -0.0279881 -0.0241177 -0.367548
57 1 0.699321 1.00216 0.00160514 1.13662 -3.30196 0.611573 -0.510115 -0.0518837
64 1 0.751495 0.0254717 0.0266714 0.460944 -3.31509 -0.31408 0.0978971 -0.213087
143 1 0.777816 0.0506159 0.0252294 0.945858 -3.31593 -0.545136 0.0491439 -0.247702
1662 1 0.775457 0.023283 0.0494125 0.485648 -3.26154 -0.0956761 0.164005 0.474906
1741 1 0.751627 0.0494544 0.050663 0.34421 -3.37677 -0.108839 0.320808 -0.384023
63 1 0.775952 -0.000861962 0.0258337 0.421962 -3.33962 -0.0526502 -0.243324 -0.229358
141 1 0.749737 0.0505947 0.00102774 0.611165 -3.34692 0.504957 0.0466303 -0.211295
68 1 0.799468 0.0245929 0.0267124 0.742048 -3.30992 0.552825 -0.254314 -0.558262
147 1 0.825624 0.0491338 0.0270772 0.737966 -3.31651 -0.183563 0.188482 -0.920882
1666 1 0.825976 0.0252199 0.0503485 0.327737 -3.31784 -0.261933 -0.380194 0.380161
1745 1 0.799852 0.0489835 0.050408 0.528944 -3.32569 0.319668 0.280083 0.398168
66 1 0.824729 0.0246607 -0.00137795 0.593767 -3.32734 -0.039683 0.114373 0.627142
72 1 0.850761 0.0248549 0.0254165 0.503318 -3.32668 0.216894 0.0180089 -0.386057
151 1 0.874692 0.0500988 0.0201158 3.06892 -3.23931 0.14689 -0.509594 1.22709
1670 1 0.876407 0.0274942 0.0483084 1.91136 -3.26888 -0.444508 -0.839184 -0.0093935
1749 1 0.849806 0.0490991 0.0502207 0.563367 -3.2721 0.683367 0.349521 0.235302
149 1 0.850297 0.0494198 -0.00155424 0.499973 -3.27271 -0.663273 -0.0849992 0.20191
69 1 0.849718 1.00181 0.998118 1.44514 -3.281 -0.0920484 -0.840191 0.468551
75 1 0.924566 -0.00175358 0.0235681 0.63822 -3.30916 0.137261 0.0729977 0.275528
76 1 0.90125 0.0230474 0.0235197 1.10687 -3.32857 -0.512339 0.405696 0.276838
155 1 0.925769 0.050386 0.0249162 0.796813 -3.27404 -0.242604 -0.22595 0.0529118
1674 1 0.924789 0.0240127 0.0522305 1.23901 -3.29799 -0.0383271 0.275638 -0.52523
1753 1 0.899426 0.0489729 0.0478356 1.24546 -3.28082 0.462469 0.546553 0.0360529
80 1 0.948929 0.0238991 0.02657 0.827612 -3.32314 0.129664 0.352283 -0.165078
159 1 0.972289 0.0510769 0.0249633 0.969823 -3.34307 0.167615 -0.0848258 -0.216593
1678 1 0.97462 0.0256854 0.0503354 0.153319 -3.3378 -0.180556 -0.127944 -0.254942
1757 1 0.948199 0.0527223 0.050618 1.75528 -3.28757 0.125773 -0.809414 0.12509
78 1 0.974837 0.0256819 -0.000258435 0.31152 -3.34444 0.0318766 0.193132 0.0872714
1677 1 0.947866 0.000203499 0.0498725 0.860026 -3.3369 0.538876 -0.329584 0.239049
1681 1 1.00052 0.0490745 0.0496311 0.583082 -3.31245 -0.18179 0.550887 0.0856769
161 1 1.00113 0.102533 -0.00130613 1.18966 -3.3349 -0.164073 -0.218641 0.46397
163 1 0.0256582 0.101431 0.0256779 0.219093 -3.32576 -0.21149 -0.337858 -0.198129
1682 1 0.0258238 0.0743721 0.0514378 1.11018 -3.34053 -0.460389 0.255926 -0.444337
1761 1 -0.0025982 0.100283 0.0498308 1.23876 -3.36339 0.538784 -0.0653071 -0.280224
88 1 0.0494712 0.0773321 0.0263669 0.875394 -3.32516 0.268497 -0.246423 -0.324033
1765 1 0.050417 0.0998632 0.0514144 1.09655 -3.31157 -0.519396 0.546291 -0.367036
92 1 0.0984892 0.0750155 0.0271014 1.92455 -3.32587 0.401524 0.00793939 -0.746024
167 1 0.0756365 0.102056 0.0251287 0.449003 -3.36013 -0.091752 -0.243243 -0.109341
1686 1 0.0749653 0.0777485 0.0500419 1.13839 -3.23503 -0.270789 -0.497096 -0.168848
1769 1 0.101294 0.10227 0.0480485 1.01082 -3.29814 -0.273537 -0.257517 0.404287
169 1 0.100129 0.0996417 -0.000386174 0.377454 -3.36246 -0.268645 0.297728 0.251201
86 1 0.0750352 0.0740796 -6.31773e-05 0.703927 -3.33742 0.14687 0.418399 0.128041
91 1 0.124908 0.047694 0.0250568 0.921116 -3.33558 -0.269407 0.677176 -0.244909
96 1 0.150648 0.0746006 0.0235971 0.277334 -3.29287 -0.139222 0.158033 -0.128366
171 1 0.126459 0.100966 0.0254546 0.494958 -3.30569 -0.247057 0.169197 -0.307642
1690 1 0.126287 0.0762492 0.0468498 1.24102 -3.28517 -0.038308 -0.319883 0.362652
1773 1 0.152034 0.101588 0.0482727 0.677626 -3.32893 -0.302173 -0.240126 0.243603
100 1 0.19974 0.0750104 0.0226756 0.731491 -3.32889 0.104217 -0.201682 0.408233
175 1 0.176956 0.101093 0.0240389 0.74075 -3.33891 -0.511842 -0.15809 0.15866
1777 1 0.199433 0.101379 0.0512482 0.773019 -3.36271 0.277476 -0.294335 -0.40735
1694 1 0.174348 0.0754481 0.0480616 0.490821 -3.32508 0.417093 0.105913 0.046784
97 1 0.199866 0.0495823 -0.00281616 1.30165 -3.35626 0.359568 -0.20936 0.738175
104 1 0.250773 0.0772327 0.0230933 0.943717 -3.26161 -0.130765 -0.0377743 0.486632
179 1 0.224443 0.100648 0.0241231 0.167145 -3.35413 -0.119992 -0.0162791 0.330494
1698 1 0.224808 0.0750717 0.0482039 0.504575 -3.357 0.164993 0.527714 0.439988
1781 1 0.249526 0.101449 0.0492677 0.322877 -3.35019 -0.579986 -0.366328 0.0378637
98 1 0.226209 0.0746972 0.00023868 0.674624 -3.32564 -0.309179 -0.0391613 -0.372683
108 1 0.300411 0.0761068 0.0234764 0.680386 -3.34194 -0.277494 -0.298545 0.30113
183 1 0.274405 0.103218 0.0236055 0.913485 -3.29581 0.0803017 -0.567353 -0.066686
1702 1 0.273654 0.0760068 0.0491212 0.436031 -3.34009 0.289105 -0.301432 -0.23913
1785 1 0.299491 0.0988607 0.0491235 1.08603 -3.33892 -0.249626 0.375223 0.142165
112 1 0.348844 0.0768079 0.0254145 0.190718 -3.37051 0.159341 -0.0958801 -0.270648
187 1 0.32297 0.100779 0.0252343 0.640201 -3.30081 0.631214 0.159434 -0.0607027
1706 1 0.326527 0.0765139 0.0508042 0.987567 -3.31926 -0.473598 -0.433446 0.00360517
1789 1 0.348013 0.102089 0.0504797 0.787444 -3.23239 0.269153 -0.46658 -0.261233
116 1 0.399886 0.0752761 0.0253086 0.284512 -3.305 0.0982784 0.254946 0.115707
191 1 0.374224 0.10111 0.0268068 0.349463 -3.33648 0.0449847 0.00237807 -0.42886
1710 1 0.373039 0.075453 0.0509445 0.509193 -3.34719 0.116907 0.0461256 -0.0479463
1793 1 0.400288 0.0995852 0.0489925 0.619102 -3.33901 -0.0265993 0.246153 0.207569
193 1 0.401077 0.0998843 1.00202 1.20364 -3.35469 -0.306376 0.218316 -0.568214
120 1 0.451839 0.0731914 0.026642 1.38031 -3.31415 -0.701036 0.301233 -0.273116
195 1 0.425762 0.101662 0.0250319 0.400583 -3.32613 0.155392 -0.327615 0.103221
1714 1 0.425163 0.0747404 0.0493189 0.367144 -3.36166 0.150275 0.152884 -0.00787919
199 1 0.475148 0.0991928 0.0251013 0.649587 -3.31567 0.0249327 0.614465 -0.0504421
124 1 0.499748 0.0754317 0.0241699 0.522326 -3.3261 0.606992 0.198039 0.298592
1718 1 0.476227 0.0764557 0.0492188 1.13178 -3.30129 0.00154729 -0.421548 0.635874
1722 1 0.524921 0.0760482 0.0509387 0.626596 -3.32354 -0.317657 -0.498271 -0.508239
1801 1 0.500099 0.100555 0.0506287 0.441536 -3.35394 0.205868 -0.00746133 -0.105568
203 1 0.527419 0.100959 0.024549 0.942817 -3.36607 -0.32059 -0.184079 0.0686164
122 1 0.526303 0.0744861 1.00029 0.396236 -3.30983 -0.0529888 0.264123 0.207934
201 1 0.501204 0.10009 1.00004 0.261768 -3.36494 -0.0795293 0.0264075 0.122859
118 1 0.473891 0.0741825 0.000769375 0.979147 -3.34038 0.137199 0.232705 -0.468605
128 1 0.549421 0.0744915 0.0252406 0.512882 -3.33122 0.148472 0.180311 0.232878
207 1 0.573889 0.100427 0.0266583 0.639243 -3.3809 0.0693394 0.0488839 -0.216658
1726 1 0.576611 0.0760491 0.0513492 0.869212 -3.33698 -0.586759 -0.069043 -0.313868
1805 1 0.548031 0.101002 0.0522901 1.84365 -3.24397 0.949423 -0.306447 -0.706638
205 1 0.550707 0.100338 -0.00137552 0.828346 -3.34474 -0.0583743 0.00937401 0.705136
132 1 0.599905 0.0769309 0.0255046 0.601554 -3.2812 -0.133071 -0.243537 0.56697
209 1 0.600373 0.100454 1.00212 0.460356 -3.32224 -0.609138 0.374012 -0.22322
211 1 0.626279 0.10042 0.0268964 0.343112 -3.35637 -0.140272 0.214835 -0.148752
1730 1 0.626303 0.0754035 0.0504089 0.285507 -3.30609 -0.122311 -0.00373959 0.0689594
1809 1 0.601841 0.0999647 0.0539447 1.95407 -3.30309 -0.223029 0.401396 -0.948586
130 1 0.623724 0.07597 1.0021 1.23999 -3.28899 0.839695 -0.248354 -0.334792
136 1 0.651932 0.0752564 0.0257697 0.547104 -3.34755 -0.523339 0.137928 -0.498723
215 1 0.676357 0.101417 0.0259233 0.525216 -3.32516 -0.164834 -0.344039 -0.0937784
1734 1 0.675247 0.0748974 0.0491965 0.539636 -3.33543 0.225793 0.295461 0.713995
1813 1 0.650572 0.100608 0.0510812 0.18823 -3.34881 0.124821 0.0336778 -0.122191
140 1 0.701896 0.0775412 0.0263786 1.10929 -3.23417 -0.29497 -0.507947 -0.882871
219 1 0.726846 0.10041 0.0260156 0.457391 -3.26599 0.176207 0.142222 -0.799123
1738 1 0.726522 0.0762639 0.0503506 0.381267 -3.27503 0.3043 -0.823949 -0.048647
1817 1 0.703037 0.099071 0.0487893 1.13255 -3.22108 -0.828752 0.805626 1.08305
138 1 0.726218 0.0752384 1.00034 0.355445 -3.33843 -0.4161 0.197355 -0.0456672
217 1 0.699198 0.0999599 -0.00133015 1.37837 -3.36131 0.590962 0.207992 0.354129
144 1 0.75171 0.0755849 0.0246087 0.199562 -3.35162 0.0305936 -0.244877 0.0647371
223 1 0.77708 0.100481 0.0246072 0.354296 -3.32383 -0.114456 -0.167205 -0.122507
1742 1 0.777212 0.075064 0.0481771 0.837709 -3.34189 -0.0958428 0.0655597 0.495722
1821 1 0.751034 0.0996391 0.0490586 0.430209 -3.29292 0.578402 0.0483978 0.260306
142 1 0.776796 0.0755902 -0.000659912 0.468752 -3.39805 -0.099168 -0.128445 0.289117
221 1 0.749723 0.0993021 0.999405 0.500821 -3.30955 0.296446 0.390687 0.391394
148 1 0.803494 0.0765393 0.0262527 1.30655 -3.2938 -0.42358 -0.546476 -0.395865
225 1 0.801917 0.101671 -0.000959947 0.608635 -3.37005 0.0958454 -0.380306 0.0623974
227 1 0.825823 0.10032 0.025796 0.331268 -3.27637 0.105847 0.261166 -0.19833
1746 1 0.827098 0.0733014 0.0517284 1.18968 -3.32419 -0.508965 0.447236 0.0473185
1825 1 0.800881 0.101363 0.04948 0.560554 -3.35221 0.133806 -0.221935 0.366392
152 1 0.851251 0.074747 0.0262667 0.636805 -3.312 -0.278784 -0.220958 0.0711071
231 1 0.875657 0.0984389 0.0253904 1.11358 -3.2976 0.211794 0.261018 0.136442
1750 1 0.876011 0.0761253 0.0508043 0.780216 -3.36577 -0.057864 -0.354965 -0.147707
1829 1 0.849025 0.100632 0.0503643 0.745222 -3.3171 0.395941 -0.293517 0.301705
150 1 0.874174 0.0754758 0.999801 0.452043 -3.24209 0.536894 0.0278817 -0.44734
229 1 0.851361 0.0983475 1.00148 1.00862 -3.27126 -0.292885 0.945721 -0.419019
156 1 0.901045 0.0740668 0.0240975 1.19285 -3.36301 -0.147181 0.397045 0.23051
235 1 0.924697 0.101051 0.0246485 0.66558 -3.30963 -0.551614 0.0267376 0.266972
1754 1 0.923363 0.0754154 0.0520957 1.45034 -3.26508 0.180747 0.16357 -0.701355
1833 1 0.898609 0.102939 0.0512114 1.72545 -3.26462 0.407981 -0.930051 -0.450406
154 1 0.923138 0.0766432 -0.00183112 0.767362 -3.33568 0.502419 -0.11145 0.0692889
84 1 0.999929 0.0754732 0.0248185 0.254903 -3.36261 -0.301928 0.25422 0.221586
160 1 0.94695 0.0759002 0.0250813 0.760396 -3.30526 0.414586 -0.0824057 -0.255145
239 1 0.972986 0.100396 0.0247781 0.398343 -3.33818 0.33748 -0.015459 -0.0289285
1758 1 0.974585 0.0728759 0.0502638 1.49128 -3.31939 0.258577 0.710381 -0.112761
1837 1 0.948719 0.0992125 0.0501038 0.694437 -3.32303 0.330211 0.171867 -0.0124496
162 1 0.026712 0.126079 -0.000670584 0.449137 -3.39597 -0.0523966 0.11634 0.143743
168 1 0.0507556 0.126542 0.0251642 0.271927 -3.33136 -0.377978 -0.043026 -0.0164471
243 1 0.0234468 0.152415 0.0240739 1.11186 -3.34664 0.600463 -0.282952 0.332057
1762 1 0.0249682 0.1255 0.0477459 1.26423 -3.30568 0.142006 0.263275 0.456247
1845 1 0.0490995 0.153098 0.0493688 1.36947 -3.33968 -0.407998 -0.487915 -0.0724754
164 1 1.00042 0.124682 0.0256688 0.842136 -3.30388 -0.341188 0.0781867 -0.420237
245 1 0.0517208 0.152366 1.00001 0.766338 -3.30872 -0.370777 -0.208035 -0.0855672
172 1 0.0997199 0.126823 0.0253413 0.293493 -3.34293 0.177184 -0.194158 -0.322957
247 1 0.0739975 0.150854 0.0252536 0.507885 -3.2744 0.340639 0.156831 -0.230351
1766 1 0.0743851 0.127555 0.0496971 0.661612 -3.29817 -0.251232 -0.515315 -0.131973
1849 1 0.100078 0.150993 0.0496033 0.28836 -3.32237 0.0789607 0.118809 -0.0484899
249 1 0.0977375 0.148757 0.999846 1.59971 -3.31707 0.825226 0.363696 0.00460644
176 1 0.150861 0.12797 0.0263106 1.13415 -3.34079 0.100343 -0.277987 -0.249915
251 1 0.125334 0.150865 0.0244223 0.452204 -3.33953 -0.283868 -0.0929749 -0.0261389
1853 1 0.148292 0.150956 0.0519441 1.48229 -3.26868 0.748392 -0.177137 -0.544885
1770 1 0.124798 0.126171 0.050203 0.206529 -3.32558 0.20032 -0.0551001 0.109706
174 1 0.174783 0.12587 0.000199077 0.372473 -3.29881 -0.356343 -0.323405 0.157498
180 1 0.198519 0.127062 0.0264961 0.520674 -3.26368 0.129527 -0.0925609 -0.407051
255 1 0.176467 0.154274 0.0264147 2.15033 -3.34151 -0.293538 -0.587926 -0.0746603
1774 1 0.17555 0.126312 0.0496542 0.357476 -3.28166 -0.125121 0.294749 0.336163
1857 1 0.199589 0.152373 0.0517943 0.335714 -3.28726 0.0338979 -0.0952669 -0.00890625
184 1 0.248606 0.125218 0.0247881 0.60663 -3.31284 -0.199248 0.294268 -0.356997
259 1 0.221667 0.152191 0.0265989 1.12406 -3.31239 0.488689 -0.127897 -0.55527
1778 1 0.223466 0.127629 0.049342 0.734424 -3.31631 0.186571 -0.547169 0.39843
1861 1 0.248258 0.151265 0.0490322 0.304578 -3.36415 0.172802 -0.0156721 0.267535
182 1 0.276015 0.12806 1.00052 0.764707 -3.3184 -0.270288 -0.436792 0.0884422
188 1 0.299321 0.12676 0.0259171 0.311549 -3.29769 -0.0129975 -1.86606e-05 -0.204169
263 1 0.274087 0.151978 0.0251762 0.324083 -3.33928 0.0605749 -0.168387 -0.113581
1782 1 0.272859 0.125425 0.0478002 0.711388 -3.29939 0.419338 0.311887 0.710486
1865 1 0.300097 0.150605 0.0499265 0.389293 -3.32231 -0.343826 0.116615 0.0463743
192 1 0.348717 0.126355 0.02799 1.30234 -3.35077 0.252098 -0.037031 -0.779292
267 1 0.324209 0.151097 0.0247932 0.345664 -3.33872 0.306727 0.109321 0.195301
1786 1 0.322595 0.125571 0.0501213 0.628753 -3.27174 0.231844 -0.06143 -0.0867949
1869 1 0.350616 0.149635 0.0513923 0.698225 -3.3168 -0.116948 0.34004 -0.424472
269 1 0.349448 0.150343 0.999693 0.354645 -3.35819 -0.0902043 0.180976 0.0692459
190 1 0.374811 0.126751 0.999645 0.518905 -3.31316 0.51313 -0.385583 0.190228
196 1 0.400089 0.126577 0.0248146 0.562526 -3.3294 -0.221358 -0.34737 0.14046
271 1 0.375811 0.150143 0.0243666 0.650794 -3.35907 -0.130774 0.138747 0.23658
1790 1 0.374831 0.123676 0.0512651 0.844903 -3.3041 0.412143 0.424012 -0.126586
1873 1 0.3982 0.149538 0.0525165 1.8899 -3.35501 0.219723 0.154075 -0.272529
200 1 0.448347 0.1269 0.0252713 0.694644 -3.35625 0.321465 -0.143876 -0.128534
275 1 0.422036 0.151887 0.0251919 1.21636 -3.35581 0.302881 0.221187 0.121671
1794 1 0.424319 0.126937 0.050201 0.483656 -3.33821 -0.170305 -0.304854 0.11749
1877 1 0.449058 0.15095 0.0508354 0.422807 -3.28736 0.182689 0.195171 -0.402891
277 1 0.45058 0.150621 0.00154109 1.03451 -3.33482 -0.241325 -0.185621 -0.399035
279 1 0.474354 0.151562 0.0268471 0.964109 -3.28756 0.0309271 -0.306213 -0.689574
204 1 0.500911 0.124816 0.026345 0.681104 -3.33266 -0.0467395 -0.0717154 -0.30199
283 1 0.525376 0.149692 0.0239949 0.835185 -3.32794 0.0528465 0.364762 0.496262
1798 1 0.475032 0.126877 0.0477641 1.30685 -3.32593 -0.0192825 -0.475909 0.578503
1881 1 0.502127 0.150949 0.0487953 0.954901 -3.31958 -0.113864 -0.303871 0.22242
281 1 0.499169 0.149929 0.00121876 0.617325 -3.32223 0.172261 0.2016 -0.159816
1802 1 0.527139 0.125414 0.0496691 0.618622 -3.29706 -0.568183 0.26343 0.0686996
208 1 0.550571 0.127023 0.0242376 0.664641 -3.28987 0.149316 -0.335248 0.221673
287 1 0.575299 0.15213 0.0270604 0.955841 -3.27555 0.00453974 -0.287029 -0.617432
1806 1 0.575059 0.124788 0.0490692 1.55119 -3.33844 0.0127431 0.197482 0.675302
1885 1 0.550456 0.150505 0.0517404 0.496282 -3.3351 -0.283272 0.0296993 -0.374935
206 1 0.575606 0.127585 1.00145 1.01831 -3.28985 0.0881166 -0.660437 0.0230529
212 1 0.599581 0.12827 0.0271279 1.60106 -3.30335 0.299952 -0.730968 -0.305359
291 1 0.625606 0.150868 0.0244528 0.367 -3.34879 -0.087301 0.102484 0.0702305
1810 1 0.62553 0.126727 0.0501048 0.622999 -3.36736 0.0322779 -0.34187 0.15025
1889 1 0.600826 0.151365 0.0518791 0.548617 -3.28677 -0.156895 -0.421853 -0.338358
214 1 0.675121 0.126273 1.00245 0.925041 -3.31085 0.23756 -0.145048 -0.660608
216 1 0.651727 0.125477 0.0256238 0.427929 -3.32928 -0.79228 -0.179801 -0.0224453
295 1 0.674592 0.149999 0.0268032 0.857552 -3.25064 0.470515 0.360621 -0.485684
1814 1 0.676408 0.125981 0.0499171 0.33213 -3.34098 0.0646525 -0.31045 0.262864
1893 1 0.650678 0.151245 0.0486697 0.725909 -3.27067 -0.388911 -0.182762 0.439374
220 1 0.702716 0.123882 0.0260581 0.945523 -3.3279 -0.0789076 0.369146 -0.0964358
299 1 0.727662 0.150721 0.0243449 0.599099 -3.33838 -0.121716 -0.13807 0.104748
1818 1 0.728369 0.124301 0.0522217 1.6951 -3.25916 -0.674049 0.314285 -1.08458
1897 1 0.702464 0.149975 0.0489747 0.750682 -3.34784 -0.191398 -0.10829 0.145086
218 1 0.72599 0.125942 0.999929 0.452398 -3.39737 -0.019212 -0.330817 0.0585928
297 1 0.699783 0.149293 1.00307 1.65802 -3.2872 0.368224 0.0515651 -0.490407
224 1 0.752474 0.124074 0.0246504 0.622798 -3.34945 -0.356894 0.182991 -0.00531445
303 1 0.77508 0.149375 0.025749 0.908046 -3.25809 0.435329 0.103245 -0.310236
1822 1 0.775322 0.125656 0.0515316 0.936956 -3.33824 -0.178137 -0.461844 -0.416215
1901 1 0.751075 0.152228 0.0481688 1.5539 -3.30685 -0.275399 -0.253967 0.459112
228 1 0.799986 0.125534 0.0234974 0.825184 -3.32329 -0.00459885 -0.0932736 0.21103
307 1 0.824888 0.147533 0.0249095 1.23686 -3.25886 -0.0944942 0.761702 0.41716
1826 1 0.825921 0.125577 0.0506796 0.360563 -3.32906 -0.256602 -0.134997 0.0483363
1905 1 0.799416 0.148518 0.050855 0.605975 -3.31732 0.528103 0.364568 -0.339941
226 1 0.828799 0.126758 0.00131638 2.46179 -3.29272 -0.728026 -0.794558 -0.683455
232 1 0.851931 0.123506 0.0259005 0.956298 -3.32093 0.0486116 0.407908 -0.210948
311 1 0.875276 0.151519 0.0271331 1.30116 -3.27851 -0.520006 0.00461869 -0.559154
1830 1 0.873391 0.125315 0.0514061 0.755927 -3.24638 -0.0573466 0.25311 0.414989
1909 1 0.849195 0.149996 0.0498807 0.328656 -3.35754 0.197423 0.258127 0.375451
309 1 0.850778 0.151116 1.0014 0.813737 -3.29325 0.392715 -0.29476 -0.352626
234 1 0.925466 0.126181 1.0016 0.884184 -3.33789 -0.181603 0.195979 -0.229561
236 1 0.89576 0.126589 0.0281064 3.86696 -3.2553 1.0734 -0.317954 -0.876048
315 1 0.924794 0.15027 0.0256702 0.467631 -3.35366 -0.0728987 0.187451 -0.0487693
1834 1 0.924504 0.125569 0.0499627 0.352193 -3.35588 0.135276 0.342942 0.0479529
1913 1 0.899634 0.1531 0.0496906 1.41163 -3.2534 0.062892 -0.851996 0.551199
313 1 0.899326 0.149124 -0.00154754 1.08526 -3.36144 0.452618 0.204308 0.439301
1841 1 0.999964 0.149819 0.0496702 1.08192 -3.31646 0.223387 0.676578 -0.265662
238 1 0.975531 0.12885 0.000779637 1.11423 -3.34744 -0.364934 -0.794595 -0.205333
240 1 0.949566 0.126132 0.0265036 0.404602 -3.31848 0.150685 0.093148 -0.377643
317 1 0.949426 0.153656 1.00207 1.63041 -3.27031 -0.0942662 -0.979771 -0.768133
319 1 0.977442 0.150535 0.0242964 1.16546 -3.30145 -0.110106 0.29173 0.384749
1838 1 0.973031 0.125574 0.0507112 1.11906 -3.28817 0.652055 -0.134692 -0.460593
1917 1 0.95271 0.152059 0.0509035 1.46922 -3.3183 -0.722766 -0.0404545 -0.500403
241 1 1.00232 0.151974 -0.00117226 0.934897 -3.2343 -0.610995 -0.229253 0.318121
248 1 0.049701 0.177109 0.0233855 0.725173 -3.36253 0.0555264 -0.174442 0.0921156
323 1 0.027732 0.203168 0.0231682 1.74624 -3.27782 -0.585439 -0.859774 0.581312
1842 1 0.0256786 0.17944 0.0503461 1.86765 -3.32921 -0.12431 -0.867049 -0.383617
1925 1 0.0528093 0.198594 0.0501156 2.1607 -3.28835 -0.360179 0.584478 -0.145263
325 1 0.0527324 0.200668 -0.00130815 0.979653 -3.33928 -0.169116 -0.148065 0.0183871
244 1 1.00158 0.17736 0.0240596 0.663889 -3.35249 -0.0636585 0.0798545 0.313196
252 1 0.101617 0.176192 0.0240232 0.722825 -3.35378 -0.331017 -0.317486 0.24596
327 1 0.0766361 0.200805 0.0248006 0.308451 -3.36624 -0.143679 0.0386664 0.185899
1846 1 0.0749663 0.173942 0.0483419 1.00409 -3.29194 0.361259 0.437028 0.37319
1929 1 0.100775 0.199619 0.0504377 0.580183 -3.34935 -0.600929 0.0390893 -0.0776897
246 1 0.0769125 0.175361 0.999228 0.516213 -3.34121 -0.194276 0.22859 0.0493559
256 1 0.149154 0.174753 0.0250733 0.826372 -3.32938 0.336548 0.233106 -0.0497112
331 1 0.125172 0.20048 0.0252667 0.139835 -3.3201 -0.124781 0.229248 -0.172645
1850 1 0.126441 0.175738 0.0504669 0.761119 -3.2588 -0.790569 0.0857206 -0.1525
1933 1 0.1504 0.199445 0.0495905 0.582625 -3.34492 -0.00298659 0.471961 -0.00643561
260 1 0.201272 0.1777 0.0261721 0.777579 -3.28717 -0.481391 0.193827 -0.21851
335 1 0.174735 0.201649 0.0240084 0.416258 -3.31084 0.114297 -0.363827 0.501175
1854 1 0.176185 0.176988 0.0510906 0.607226 -3.32531 -0.271546 0.22174 -0.300346
1937 1 0.199495 0.203279 0.0497163 0.313125 -3.3496 -0.0324565 -0.22118 -0.196746
337 1 0.201484 0.203058 1.00104 0.716734 -3.26738 -0.131378 -0.444521 -0.573958
264 1 0.249312 0.176413 0.0261498 0.381848 -3.31982 -0.16003 -0.0270571 -0.248487
339 1 0.22496 0.202041 0.0233486 0.811375 -3.31665 0.338128 0.352708 0.685761
1858 1 0.224091 0.178511 0.0509605 0.656967 -3.30262 0.00198796 -0.319535 -0.0755357
1941 1 0.248934 0.201645 0.0485013 0.626998 -3.35325 0.28405 0.208229 0.496558
268 1 0.298264 0.177356 0.0258768 0.746812 -3.27148 0.237708 -0.52189 -0.476135
343 1 0.274387 0.201553 0.0247981 0.155995 -3.32292 -0.115881 0.0814116 0.0792906
1862 1 0.275094 0.174761 0.0493739 0.734804 -3.29887 -0.456933 0.281516 0.584779
1945 1 0.298245 0.200037 0.049833 0.52092 -3.31843 0.0520093 0.241337 0.338345
272 1 0.349847 0.175191 0.0244623 0.186777 -3.30798 -0.15597 -0.394342 0.134737
347 1 0.323877 0.199006 0.025935 0.657239 -3.33348 0.173523 0.530212 -0.210989
349 1 0.350281 0.200448 3.99572e-05 0.211114 -3.32273 -0.21273 0.033491 -0.092073
1866 1 0.324961 0.174672 0.0496944 0.265664 -3.36884 -0.0410328 -0.126946 0.25565
1949 1 0.349266 0.199735 0.0510481 0.356487 -3.29991 0.222889 -0.0536738 -0.425495
266 1 0.325577 0.176759 0.00027503 0.468973 -3.33808 -0.248682 -0.218967 -0.27471
276 1 0.398901 0.178679 0.0235806 2.49265 -3.30549 0.756894 -0.758713 0.239174
351 1 0.373082 0.198264 0.0250552 1.13858 -3.27189 0.25795 1.04075 -0.00847689
1870 1 0.374736 0.174725 0.0486122 0.929471 -3.33293 0.0275861 0.0285962 0.42958
1953 1 0.40013 0.201218 0.0499927 0.269306 -3.36627 -0.156695 0.0694652 -0.140973
353 1 0.400112 0.199999 -0.00171006 0.914413 -3.33413 -0.0658183 0.165954 0.448643
280 1 0.448844 0.175924 0.0243506 0.648263 -3.33042 -0.250366 -0.148652 0.475621
355 1 0.425663 0.202106 0.0263945 1.12449 -3.24329 -0.926005 -0.943495 -0.252232
1874 1 0.425644 0.175599 0.0511885 0.790592 -3.3584 -0.305952 0.211661 -0.490664
1957 1 0.450277 0.201309 0.0494555 0.35863 -3.29028 -0.0896723 -0.504629 0.476559
1878 1 0.476037 0.174932 0.0488479 0.476951 -3.32641 -0.45042 0.377159 0.336866
284 1 0.499746 0.174947 0.0245548 0.502502 -3.30153 0.202488 0.0220612 0.119361
359 1 0.473352 0.200896 0.0254321 0.609105 -3.29878 0.25586 -0.0473545 0.032355
361 1 0.499727 0.20073 1.00392 1.80136 -3.30565 0.0731773 0.0486713 -0.939055
363 1 0.526053 0.19978 0.0255223 0.513865 -3.3148 -0.00189467 0.514876 0.159908
1882 1 0.525294 0.177262 0.0519387 1.50812 -3.31658 0.202134 -0.524486 -0.564789
1961 1 0.500876 0.199982 0.0483895 1.06209 -3.33294 -0.281481 0.347109 0.281145
288 1 0.549699 0.175263 0.025597 0.27103 -3.31423 0.177703 -0.0695965 0.25327
367 1 0.574472 0.200471 0.0257125 0.509549 -3.35009 0.234279 0.0470135 -0.198991
1886 1 0.574831 0.174431 0.0499651 0.481918 -3.28936 -0.0182461 0.647645 0.359911
1965 1 0.550413 0.201557 0.0504662 0.16653 -3.31711 -0.0332468 -0.0573817 0.0165804
286 1 0.575934 0.175474 -0.00165669 0.788023 -3.3717 0.110323 0.14831 0.337628
365 1 0.550157 0.198936 0.00138852 0.749069 -3.3439 0.250688 0.516881 -0.409647