ITEM: TIMESTEP
1750
ITEM: NUMBER OF ATOMS
32000
ITEM: BOX BOUNDS pp pp pp
5.7105807973825717e-01 8.0428941920261792e+01
-3.9869328614570065e-01 8.1398693286145971e+01
-4.1447858707579854e-01 8.1414478587075862e+01
ITEM: ATOMS id type xs ys zs c_csym c_peratom fx fy fz
8 1 0.052168 0.0266583 0.023539 1.50579 -3.31256 -0.692742 -0.618968 0.567212
83 1 0.0269664 0.0504445 0.025318 0.686664 -3.33353 -0.0729637 0.0308682 0.107331
1602 1 0.0237602 0.0246363 0.049654 0.899743 -3.28011 1.14548 -0.144201 0.1243
1685 1 0.0507388 0.0505684 0.0516283 0.496844 -3.31676 -0.132681 -0.281937 -0.22015
2 1 0.0253074 0.0252727 -0.000123025 0.512621 -3.30598 0.656583 -0.203832 -0.0775298
81 1 0.000536344 0.047749 -0.000389858 0.732366 -3.29298 -0.00979504 0.347925 -0.181237
12 1 0.0995819 0.0272105 0.0250141 0.847978 -3.34308 0.290492 -0.287005 0.0823723
87 1 0.0751156 0.0512985 0.0243598 0.556225 -3.25476 0.284584 -0.251791 0.584945
1689 1 0.101186 0.0504826 0.0509499 0.44678 -3.3305 -0.0681962 -0.259628 -0.247285
6 1 0.0755667 0.0245813 0.000750805 0.442171 -3.28296 -0.232496 0.0382989 -0.367587
89 1 0.0996673 0.0497497 -0.000550687 0.688413 -3.34347 0.44856 0.151846 0.0619042
10 1 0.127918 0.0244399 0.000902529 1.55401 -3.31849 -0.836036 0.0564241 -0.140041
16 1 0.151975 0.0231864 0.0269431 0.71693 -3.32988 -0.0955392 0.418988 -0.187375
91 1 0.127247 0.0484415 0.0254524 0.685528 -3.35351 -0.15935 0.131391 -0.193236
1610 1 0.126353 0.0251586 0.0510312 0.443878 -3.28625 -0.103985 -0.181125 -0.0970154
1693 1 0.149492 0.0486935 0.051904 1.27241 -3.30554 0.679581 0.223373 -0.343742
11 1 0.124745 0.0013224 0.0267578 0.779265 -3.33881 0.144373 -0.155449 -0.428338
93 1 0.151984 0.0485899 -0.00042285 0.553416 -3.36538 -0.189077 0.27586 0.325016
15 1 0.177021 -0.000305642 0.025409 0.404776 -3.29523 -0.564862 -0.216783 -0.147273
20 1 0.201233 0.0238506 0.0247427 0.272925 -3.32088 0.149941 0.193252 -0.109525
95 1 0.17751 0.0485686 0.0266843 0.849646 -3.36194 -0.638102 0.24717 -0.335471
1614 1 0.176456 0.0254198 0.0511687 0.56488 -3.26833 -0.0243998 -0.518346 -0.24747
1697 1 0.202 0.0476406 0.049401 0.823068 -3.30382 0.202019 0.522357 0.183372
14 1 0.174394 0.0232839 0.00051555 0.617199 -3.33015 0.306808 0.236112 -0.176749
24 1 0.250721 0.0250974 0.0246844 0.288272 -3.36783 0.28296 -0.210976 0.150202
99 1 0.226796 0.0494467 0.0253153 0.51157 -3.33533 -0.328418 0.0694751 -0.210471
1618 1 0.226366 0.0238837 0.0497496 0.224765 -3.32854 -0.0309105 -0.0419052 0.0130335
1621 1 0.2499 -0.00062875 0.0499691 0.202986 -3.37252 0.260114 -0.0456042 -0.141403
1701 1 0.249264 0.0502352 0.0497961 0.702299 -3.30112 0.556562 -0.200461 -0.111145
23 1 0.276438 -0.00114335 0.023441 0.817587 -3.31788 -0.422761 0.601402 0.261267
28 1 0.300471 0.0247663 0.0250303 0.409816 -3.33225 -0.393017 -0.163214 0.0502124
103 1 0.277399 0.0509228 0.0252829 0.83224 -3.34846 -0.298838 -0.436602 -0.0413321
105 1 0.301202 0.0501247 -9.45449e-05 0.529356 -3.33063 -0.548773 0.0750408 -0.212242
1622 1 0.276371 0.0255065 0.0505203 0.358039 -3.36992 -0.383142 -0.249041 -0.326355
1705 1 0.300824 0.0505996 0.0505615 0.374046 -3.24998 -0.3743 -0.262237 -0.639059
26 1 0.32385 0.0253058 0.00138256 1.33386 -3.24327 0.363868 0.197299 -0.52392
32 1 0.349709 0.0262737 0.0265638 0.837189 -3.33134 0.156004 -0.047637 -0.256274
107 1 0.324111 0.0498064 0.0237137 0.705814 -3.31984 0.0706553 0.417058 0.540537
1626 1 0.32412 0.0256323 0.0503305 0.624448 -3.29937 0.46365 -0.18044 -0.112564
1709 1 0.349405 0.0507706 0.0514229 0.686423 -3.32744 0.113319 -0.192785 -0.270501
1629 1 0.350835 -0.000106433 0.0490496 0.40934 -3.36032 0.273864 0.17474 0.359332
36 1 0.399955 0.0238708 0.0262411 0.622937 -3.3167 -0.0826597 0.490947 -0.104768
111 1 0.373711 0.051076 0.0253079 0.513463 -3.31691 0.460698 -0.313292 0.156485
1630 1 0.37509 0.0254427 0.0496782 0.280554 -3.35767 -0.0923108 -0.219079 -0.0179207
1713 1 0.398649 0.0509942 0.0500981 0.286238 -3.28273 0.167755 -0.515334 -0.191036
31 1 0.375313 -0.00100261 0.0222425 1.74848 -3.2707 -0.235108 0.4368 0.75134
1633 1 0.399729 -0.000219439 0.0501191 0.191303 -3.34693 -0.0835769 -0.0446633 0.040069
34 1 0.423962 0.0254986 0.00100867 0.32678 -3.32345 0.296194 0.0917977 -0.0445579
40 1 0.450784 0.0247221 0.0265668 0.80202 -3.35869 -0.237952 0.419115 -0.0130861
115 1 0.423385 0.0519799 0.026139 0.780378 -3.33511 0.303354 -0.576634 -0.122434
1634 1 0.42488 0.0241733 0.0501092 0.334828 -3.32986 -0.0294077 0.249767 -0.0943358
1717 1 0.448783 0.0502123 0.0509902 0.355547 -3.37025 0.182568 -0.0775852 -0.310654
1638 1 0.477343 0.027478 0.0500438 1.71202 -3.33523 -0.429238 -0.387493 -0.122016
37 1 0.449858 0.00197295 0.000818277 0.831833 -3.31295 -0.442475 -0.493362 -0.156807
38 1 0.474101 0.024063 0.00110082 0.537172 -3.29555 0.363756 0.55036 -0.307311
44 1 0.501493 0.0256121 0.0249321 0.33035 -3.3612 -0.207938 -0.28038 0.0706759
119 1 0.475859 0.0509358 0.0235528 0.993488 -3.32217 -0.478039 -0.232491 0.367759
123 1 0.525353 0.0502889 0.0268713 0.586612 -3.33123 0.21723 0.0865487 -0.499988
1641 1 0.50139 -0.000919307 0.0499644 0.719391 -3.31445 -0.345244 0.42273 -0.589743
1721 1 0.500629 0.0515793 0.0502752 0.366151 -3.31161 -0.0558316 -0.0444918 0.272172
43 1 0.525536 -0.000100531 0.0251796 0.173286 -3.38514 -0.0180787 0.113478 0.105967
1642 1 0.525035 0.0268388 0.0508239 0.817026 -3.29775 0.121934 -0.580096 -0.403705
47 1 0.575246 0.000289759 0.0248257 0.323144 -3.32662 0.16711 -0.0730101 -0.028378
48 1 0.551356 0.0246822 0.0264748 0.642253 -3.34611 -0.490639 0.157264 -0.45738
127 1 0.574435 0.0506523 0.0235848 0.521145 -3.28253 0.1934 -0.2237 0.0314433
1645 1 0.550819 0.000347205 0.050725 0.347335 -3.34814 -0.361372 -0.014596 -0.249995
1646 1 0.574708 0.0250988 0.0501494 0.330389 -3.30142 0.158304 0.149383 0.160413
1725 1 0.552769 0.0518447 0.0491177 1.27572 -3.33242 -0.323742 -0.110358 0.320728
52 1 0.598891 0.0262503 0.0241513 0.656204 -3.35588 0.204886 -0.297577 -0.17957
131 1 0.625882 0.0506114 0.0236241 0.55934 -3.33505 -0.0783414 -0.235252 0.00104411
1650 1 0.625658 0.0258277 0.0499228 0.381694 -3.36795 -0.0665469 -0.180748 -0.0433791
1729 1 0.599801 0.0492261 0.04831 0.59934 -3.33671 0.0219537 0.205939 0.36859
51 1 0.624854 0.000691441 0.0259716 0.697631 -3.32569 0.307235 0.253227 -0.30289
1649 1 0.599337 0.00179388 0.0496678 0.768136 -3.31835 0.123859 -0.428954 -0.0677858
53 1 0.649782 0.0012192 -0.00109661 0.643505 -3.34875 0.202892 -0.0724225 0.323658
56 1 0.65194 0.0246002 0.025235 0.63817 -3.3273 -0.307489 -0.262365 0.00709626
135 1 0.674705 0.0501953 0.0244209 0.602424 -3.35731 0.415663 -0.0432985 0.0640294
1653 1 0.649621 -0.000591675 0.050918 0.238195 -3.33532 0.0449518 -0.069121 -0.488244
1654 1 0.675384 0.0228382 0.051523 0.748222 -3.32743 -0.0523195 0.298143 -0.293264
1733 1 0.650781 0.048674 0.0494122 0.384095 -3.3416 -0.0563106 0.207426 0.207826
58 1 0.724363 0.0249588 0.000312012 0.641905 -3.28387 0.388603 -0.41477 0.304316
60 1 0.700317 0.0249906 0.0265529 0.765931 -3.32453 -0.309565 -0.0694787 -0.531857
139 1 0.726839 0.0483264 0.0245859 1.02687 -3.32084 -0.230907 0.183315 0.361839
1658 1 0.725035 0.0246302 0.0483586 0.764743 -3.2987 0.455497 0.225041 0.544499
1737 1 0.700068 0.0495654 0.0500454 0.231847 -3.37812 -0.244184 0.0384185 -0.0755895
59 1 0.72536 -0.000493199 0.0250406 0.275979 -3.36389 0.180655 -0.184223 -0.0597205
137 1 0.702083 0.048926 -0.000561428 0.470888 -3.30834 -0.774986 0.275739 0.325496
64 1 0.751939 0.0235973 0.0245617 0.949845 -3.32008 -0.608025 0.631374 0.28052
143 1 0.774537 0.0515102 0.0256778 0.541467 -3.30516 -0.11869 -0.303114 -0.0745001
1662 1 0.776013 0.0248864 0.0522997 0.91569 -3.30231 0.134326 -0.225718 -0.50229
1741 1 0.752026 0.0506138 0.0512503 1.25118 -3.32124 -0.79778 -0.212116 -0.389681
68 1 0.798149 0.025613 0.0249354 0.697386 -3.3518 0.364901 0.00918006 0.00231965
147 1 0.824297 0.0499566 0.0251774 0.146576 -3.33834 -0.190148 0.249384 -0.109087
1666 1 0.823558 0.0241684 0.0489905 0.818461 -3.35038 0.12225 0.231836 0.333981
1745 1 0.798884 0.051121 0.0495026 0.549377 -3.3386 0.249127 -0.000904512 0.110217
72 1 0.84692 0.0257473 0.0242087 2.11373 -3.29586 0.885095 -0.176308 -0.0200276
151 1 0.875698 0.0509484 0.0224468 1.10034 -3.31976 -0.122157 -0.383264 0.725709
1669 1 0.849778 0.000613176 0.0497397 0.523557 -3.34493 -0.0761717 0.0921135 0.0575145
1670 1 0.875002 0.0237384 0.0477834 1.18381 -3.35418 0.00535244 0.724123 0.460768
1749 1 0.85087 0.0491073 0.049302 0.606952 -3.34346 -0.213564 -0.112649 0.118057
75 1 0.925808 0.00142159 0.0250715 0.387878 -3.33471 -0.0694061 -0.313892 0.09382
76 1 0.90053 0.0245298 0.0240759 0.30293 -3.32787 0.0585676 0.397183 0.0345121
153 1 0.90108 0.0507779 0.000434519 0.573962 -3.30366 -0.242071 -0.0727824 -0.550774
155 1 0.924934 0.0511179 0.0234761 0.260687 -3.29454 0.368004 -0.403121 0.241266
1673 1 0.899991 3.26051e-05 0.0502578 0.434254 -3.33467 0.380434 0.126634 0.284839
1674 1 0.925438 0.0252016 0.0489445 0.193114 -3.36583 0.0548753 0.0347606 0.163046
1753 1 0.901027 0.0498472 0.0476189 0.752554 -3.34556 -0.613827 0.0173845 0.335954
4 1 1.00348 0.0253191 0.0243583 1.74057 -3.2657 -1.01032 -0.521291 -0.107728
1681 1 0.999802 0.047746 0.0488171 1.08771 -3.28653 0.129713 0.600422 0.435305
80 1 0.95158 0.0238265 0.0245041 0.6029 -3.3228 -0.530716 0.59463 -0.0349311
159 1 0.97771 0.0504481 0.0242483 1.3557 -3.29864 -0.916522 -0.396766 0.255686
1678 1 0.974437 0.0239341 0.0493089 0.86901 -3.2997 0.501199 0.159544 -0.0494084
1757 1 0.950376 0.0500937 0.0480322 0.339984 -3.36224 0.0178311 0.0350715 -0.0984512
78 1 0.974828 0.023513 0.000744322 1.10806 -3.37745 0.473074 0.153887 -0.3082
157 1 0.950192 0.0495955 -0.000434236 0.356367 -3.36625 0.271423 -0.0613296 0.128587
161 1 0.000685601 0.0994423 0.000494009 0.292766 -3.33685 -0.0646059 -0.178344 0.0362481
163 1 0.0269096 0.098498 0.0274709 1.4881 -3.34819 -0.186919 -0.074083 -0.370293
1682 1 0.0265412 0.0729015 0.0517606 0.963787 -3.33387 -0.275906 0.526197 -0.328012
1761 1 -0.000584427 0.0984156 0.0497525 0.817188 -3.33305 0.227017 -0.104304 -0.0810465
88 1 0.0524149 0.07565 0.0247925 1.17096 -3.2623 -0.835508 -0.204667 0.249549
82 1 0.0238367 0.0736438 -0.00055324 0.903443 -3.3511 0.293798 0.0687226 0.256913
92 1 0.100781 0.0737334 0.0266137 0.53064 -3.32911 -0.0902861 0.146537 -0.268003
167 1 0.0742143 0.0995492 0.0248328 0.475672 -3.32093 0.401821 0.139247 -0.0411744
1686 1 0.0744936 0.0745566 0.0519273 0.714064 -3.29582 0.376436 0.148247 -0.380416
1769 1 0.100302 0.0985459 0.0499107 0.594302 -3.35338 0.183125 0.101015 0.254599
169 1 0.0998636 0.09781 1.60406e-05 0.37006 -3.37277 0.15031 0.18256 0.148614
96 1 0.152215 0.0745133 0.0255654 0.517647 -3.2711 -0.257097 -0.625271 -0.0950223
171 1 0.126392 0.0992788 0.0257202 0.362241 -3.33472 -0.432308 0.318486 0.00796707
1690 1 0.127785 0.0734109 0.0490691 1.28806 -3.29903 -0.438139 0.467303 0.301212
1773 1 0.150944 0.100239 0.0502139 0.31233 -3.30126 -0.411305 -0.0314972 -0.202712
90 1 0.126467 0.0747239 0.00316194 1.91691 -3.3035 -0.466051 -0.59292 -0.67206
100 1 0.200836 0.0753442 0.0250585 0.348481 -3.33591 0.0436843 -0.366646 0.0831899
175 1 0.175348 0.0975345 0.0237158 1.15247 -3.28016 0.191902 1.04236 0.267417
1777 1 0.199922 0.101371 0.0496328 0.808263 -3.35087 -0.154131 -0.502451 0.112859
94 1 0.176259 0.074579 0.000463506 0.290137 -3.30113 -0.131831 -0.360024 -0.208948
177 1 0.201535 0.100399 0.000534582 0.703749 -3.31136 -0.233968 -0.24585 -0.0808675
104 1 0.252051 0.0750413 0.0253152 0.575225 -3.32462 -0.460483 0.0733163 -0.0589833
179 1 0.225362 0.0986588 0.0241132 0.567627 -3.3405 0.190097 0.292451 0.150992
1698 1 0.223666 0.074889 0.0501484 1.0201 -3.35297 0.37527 0.0444365 -0.0642668
1781 1 0.249161 0.0999023 0.0497914 0.354506 -3.36986 0.297818 -0.0472178 0.0461842
98 1 0.226931 0.0732099 0.000188444 0.587365 -3.34952 0.0298546 0.404001 0.153035
102 1 0.274674 0.0742459 0.000935271 0.739072 -3.31754 0.304304 0.288856 -0.192996
108 1 0.299652 0.0780183 0.0245102 1.35603 -3.30354 0.226328 -0.627377 -0.12648
183 1 0.275832 0.102244 0.0252833 0.57591 -3.31613 -0.242414 -0.346041 -0.151132
1702 1 0.275171 0.0750324 0.0496564 0.333749 -3.32394 0.273044 0.153277 0.0769906
1785 1 0.300238 0.0997173 0.0496942 0.350291 -3.32401 0.0321759 0.265224 0.247208
109 1 0.349579 0.0519234 0.000511312 0.469321 -3.34329 0.077073 -0.561353 -0.458946
112 1 0.349464 0.0738308 0.0247451 0.7994 -3.29862 -0.376006 0.688525 0.215907
187 1 0.325425 0.100981 0.0245627 0.32335 -3.35241 0.195601 -0.0410343 -0.121775
1706 1 0.32484 0.0743499 0.0488312 0.568049 -3.30845 0.326228 0.504984 -0.128236
1789 1 0.349557 0.102853 0.0491272 0.927107 -3.37528 0.0285735 -0.405629 0.330205
106 1 0.324261 0.0755512 -0.00211308 0.806191 -3.34922 0.232508 0.136059 0.476487
189 1 0.3512 0.100103 -0.000665809 0.197719 -3.33788 -0.477722 0.0354879 -0.0995464
116 1 0.399376 0.0764362 0.0279078 1.07078 -3.26713 -0.284757 -0.353389 -0.897476
191 1 0.373711 0.0992831 0.0241792 0.986591 -3.28468 0.245943 0.609757 0.566624
1710 1 0.373371 0.0760022 0.0507497 0.473707 -3.32565 -0.0981811 0.166935 -0.0447972
1793 1 0.399486 0.0998727 0.0505994 0.254663 -3.30084 -0.0777852 0.425484 -0.0433463
120 1 0.449259 0.0765661 0.0253538 0.522377 -3.28228 0.245776 -0.674448 0.116081
195 1 0.424383 0.0986829 0.0259975 0.608935 -3.29593 0.0427586 0.656241 -0.0437352
197 1 0.449798 0.0990973 5.17086e-05 0.636727 -3.3327 0.352511 0.343054 -0.0273062
1714 1 0.422608 0.0734225 0.0513702 0.924209 -3.27946 0.778517 0.559887 0.251144
1797 1 0.449072 0.0992399 0.0501142 0.207406 -3.32894 0.101459 -0.144382 0.350456
199 1 0.474706 0.0998488 0.0251988 0.182148 -3.33007 0.272356 0.0995842 -0.0491071
124 1 0.500329 0.0764212 0.026081 0.470885 -3.32888 0.150446 -0.120164 -0.31821
1718 1 0.474915 0.0739379 0.0489857 0.826711 -3.34387 -0.191248 0.323427 0.366071
1722 1 0.526126 0.0755434 0.0499806 0.328127 -3.33727 -0.122396 -0.156088 0.402743
1801 1 0.501108 0.101289 0.0500306 0.709012 -3.3332 -0.379272 -0.247255 0.283771
203 1 0.526024 0.0996724 0.0257023 0.39826 -3.25688 -0.624893 0.158177 -0.0503614
128 1 0.550594 0.0758621 0.0240944 0.515522 -3.26607 0.0877453 -0.317445 0.541012
207 1 0.576631 0.101459 0.0256194 0.699897 -3.31559 -0.277577 0.0252043 -0.311408
1726 1 0.577269 0.0774357 0.0476077 1.85511 -3.32 -0.431029 -0.488931 0.790234
1805 1 0.548779 0.100697 0.0508128 0.566369 -3.30284 0.442431 -0.151257 0.0398721
132 1 0.600546 0.0745369 0.0243561 0.45639 -3.27295 0.0773309 0.14534 -0.248413
209 1 0.601616 0.100611 0.000632927 0.526351 -3.37081 -0.179777 -0.0444463 -0.159458
211 1 0.624944 0.0989777 0.0269987 0.877097 -3.31187 0.450186 0.252309 -0.54715
1730 1 0.624654 0.0731926 0.048951 0.774238 -3.33797 0.0805482 0.237484 0.512624
136 1 0.650477 0.075679 0.0256533 0.784892 -3.30953 0.0121553 -0.206574 -0.254094
215 1 0.677137 0.0984389 0.0251289 0.613781 -3.32081 -0.622493 0.286387 0.264051
1734 1 0.675415 0.0751374 0.0492613 0.5496 -3.34324 0.295609 -0.370958 0.229543
1813 1 0.651277 0.0983309 0.0518705 0.656542 -3.30549 -0.273187 0.281324 -0.598825
213 1 0.651578 0.0988494 -5.73531e-05 0.53859 -3.37377 -0.306372 0.44452 0.0278739
140 1 0.701454 0.0748578 0.0235234 0.767732 -3.33252 -0.183871 -0.438546 0.367785
219 1 0.726125 0.0989512 0.0242751 0.7715 -3.27086 -0.620302 0.502361 0.379672
1738 1 0.72343 0.0745966 0.0497676 1.09309 -3.31514 0.42041 -0.258782 0.295435
1817 1 0.702539 0.0995685 0.0527717 1.87611 -3.27672 -0.761247 -0.119595 -0.644572
138 1 0.725118 0.0730261 -0.000734273 0.452241 -3.27701 0.049737 0.394493 0.00853447
144 1 0.74735 0.0752747 0.0257606 1.374 -3.28964 0.812438 -0.277059 0.032612
223 1 0.776047 0.098989 0.0250546 1.18059 -3.29279 -1.04705 0.0196491 0.167177
1742 1 0.772496 0.0764061 0.0511374 1.3986 -3.3306 0.793673 -0.0447578 -0.0875123
1821 1 0.750225 0.100727 0.0509472 0.389579 -3.33508 -0.22613 -0.119634 -0.0922183
142 1 0.773211 0.0738722 0.000535023 0.585623 -3.332 0.383332 0.429035 -0.274459
221 1 0.748579 0.0992606 6.10938e-05 0.362903 -3.351 0.583861 0.107219 -0.174544
148 1 0.799093 0.0757755 0.0254886 0.290602 -3.32429 0.325849 -0.13068 0.0535991
225 1 0.796316 0.0999569 -0.00178155 2.93401 -3.24565 0.714477 -0.419297 0.346639
227 1 0.824241 0.0995193 0.0264337 0.548722 -3.29072 0.180317 -0.305434 0.00121176
1746 1 0.824542 0.0756743 0.0513406 0.487178 -3.36872 0.0187162 -0.238359 -0.322345
1825 1 0.800168 0.101159 0.0515131 0.587445 -3.32342 0.0576805 -0.469218 -0.174637
152 1 0.849582 0.0741039 0.0263602 0.647647 -3.32867 -0.126299 0.184468 -0.449858
231 1 0.87436 0.101651 0.025997 0.984504 -3.27848 0.254164 -0.60944 -0.385897
1750 1 0.87372 0.0754102 0.0492456 0.562329 -3.31783 0.537272 -0.250809 0.135915
1829 1 0.850485 0.101109 0.0492467 0.715594 -3.33846 -0.240681 -0.204843 0.341972
150 1 0.874702 0.0743069 -0.00139935 0.739221 -3.3102 0.320267 0.342004 0.354044
156 1 0.899059 0.076536 0.0246799 0.634712 -3.33757 -0.114352 -0.153922 -0.195868
235 1 0.925309 0.0992418 0.0244382 0.645141 -3.32912 -0.0455688 0.680354 -0.0169223
1754 1 0.924456 0.0756793 0.0476525 0.55703 -3.26336 0.233103 -0.278302 0.514036
1833 1 0.90041 0.0983655 0.050545 0.955265 -3.31613 0.0159581 0.685547 -0.158827
84 1 1.00109 0.0738341 0.0249477 0.470358 -3.35729 0.0120467 0.387975 0.316367
158 1 0.975943 0.073873 0.00112363 0.615754 -3.33446 0.121681 0.209639 -0.50329
160 1 0.949763 0.0760768 0.0224531 1.11148 -3.31628 0.273085 -0.477231 0.624561
237 1 0.951997 0.100833 -0.000106183 0.509131 -3.321 -0.4119 -0.0988183 -0.153712
239 1 0.973731 0.100278 0.0247243 0.754297 -3.29086 0.44812 -0.330283 0.00283402
1758 1 0.973304 0.0755729 0.0516166 1.88389 -3.34256 0.53824 -0.234797 -0.50579
1837 1 0.94963 0.0996786 0.0501162 0.426251 -3.27998 0.262474 -0.122187 -0.20113
162 1 0.0246196 0.1236 0.000889776 0.523844 -3.33814 0.344611 0.194251 -0.333555
168 1 0.0502608 0.124754 0.0252755 0.336241 -3.2968 0.374815 -0.347049 -0.0963379
243 1 0.0269498 0.148109 0.0262932 1.00145 -3.31579 -0.494406 0.363077 -0.35054
1762 1 0.0262241 0.124933 0.0509271 0.388387 -3.33056 -0.06109 -0.311945 0.0421806
1845 1 0.0531454 0.14876 0.0499088 0.976633 -3.36132 -0.191802 -0.0361406 0.0967029
1841 1 0.00018213 0.148956 0.0488904 0.431937 -3.34539 0.138232 -0.113536 0.0260529
172 1 0.0990196 0.123815 0.0252787 0.490065 -3.34882 0.422006 -0.0920605 -0.381042
247 1 0.0759743 0.149303 0.0231067 0.896205 -3.3304 -0.128153 -0.0824479 0.294926
1766 1 0.0771464 0.123368 0.0520857 0.939931 -3.32841 -0.464757 -0.0113015 -0.165551
1849 1 0.0991498 0.148163 0.0498911 0.971122 -3.33918 0.369931 0.522386 -0.019243
249 1 0.100706 0.148333 -0.00147687 0.418492 -3.34324 -0.0275839 0.0959782 0.0914032
176 1 0.15039 0.123692 0.0233228 0.893176 -3.35148 0.120551 0.21666 0.152755
251 1 0.126256 0.149361 0.0252003 0.378483 -3.29842 -0.500423 -0.234901 0.224401
1853 1 0.150079 0.150674 0.0492551 0.728266 -3.31556 -0.114018 -0.446538 0.639969
170 1 0.125711 0.125517 -0.00133606 0.772307 -3.31489 0.0174772 -0.441311 0.342999
174 1 0.176454 0.124386 -0.000718169 0.730998 -3.32634 -0.599782 0.142345 0.572911
180 1 0.199791 0.125324 0.0254245 0.543698 -3.31516 -0.0224796 -0.274523 -0.469238
255 1 0.176119 0.150697 0.0278834 2.09203 -3.24952 -0.233552 -0.184143 -1.43688
257 1 0.200747 0.147752 -0.00293586 2.10824 -3.31253 -0.163383 0.853653 0.88469
1774 1 0.173927 0.125152 0.0487025 0.668933 -3.29542 0.129359 -0.251933 0.245247
184 1 0.249975 0.124951 0.0248049 0.109825 -3.32771 -0.0299552 0.0974758 0.133672
259 1 0.224803 0.14875 0.0255687 0.354648 -3.3565 0.0790828 0.16498 -0.372028
1778 1 0.224549 0.123882 0.0493411 0.276547 -3.32482 0.286463 0.268913 0.191587
1861 1 0.250547 0.149507 0.0506368 0.255137 -3.34252 -0.237965 -0.178815 -0.056187
182 1 0.275081 0.125935 2.39904e-05 0.0903238 -3.35266 0.122318 -0.0455235 -0.0478558
188 1 0.299959 0.126075 0.0251822 0.229134 -3.33023 -0.0571685 0.170406 -0.0823257
263 1 0.274061 0.153225 0.0245404 1.4275 -3.34741 0.777862 -0.691066 0.20218
1782 1 0.274733 0.125293 0.050007 0.131981 -3.37588 0.095812 0.0691465 0.00140879
1865 1 0.301419 0.151388 0.0504176 0.847771 -3.26447 -0.623826 -0.509363 -0.53006
186 1 0.32535 0.126248 -0.00260243 0.700746 -3.30249 0.173532 -0.305113 0.470444
192 1 0.35047 0.126105 0.0229884 0.576542 -3.36948 -0.0683733 -0.0158189 0.210178
267 1 0.324995 0.149722 0.0249508 0.507928 -3.35543 0.250583 0.351974 -0.128749
1786 1 0.323664 0.125922 0.0495606 0.484001 -3.34212 0.381015 -0.113232 0.183011
1869 1 0.350517 0.150373 0.0508972 0.442028 -3.27755 -0.406833 -0.0371029 -0.655459
190 1 0.3759 0.124236 -0.00121842 0.445792 -3.31511 -0.275095 0.576984 0.154748
196 1 0.400301 0.125018 0.0240941 0.42689 -3.34739 -0.222294 0.120983 0.280991
271 1 0.374007 0.150769 0.0256363 0.493374 -3.35634 0.165192 -0.272702 -0.332557
1790 1 0.375936 0.12578 0.0501902 0.274065 -3.35051 -0.131054 -0.120269 -0.225249
1873 1 0.400078 0.149708 0.0500228 0.22769 -3.35812 0.0870371 0.154234 0.322551
200 1 0.450992 0.123709 0.0272144 1.24055 -3.31359 -0.338813 0.287269 -0.283289
275 1 0.424563 0.150005 0.0249576 0.467004 -3.30628 0.169521 -0.110511 0.0816773
1794 1 0.424206 0.124701 0.0495708 0.416443 -3.36672 0.0797042 0.0148124 0.25326
1877 1 0.447359 0.151764 0.0501396 2.31549 -3.29935 0.604387 -0.754991 0.524481
279 1 0.474193 0.149468 0.0245708 0.864605 -3.3354 0.27642 0.201984 0.582963
204 1 0.500765 0.125062 0.0260427 0.445408 -3.33877 -0.29603 -0.0526985 -0.318601
283 1 0.523772 0.149111 0.0259284 0.471272 -3.3557 0.228448 0.336062 -0.0694587
1798 1 0.47556 0.124344 0.0512345 0.541175 -3.36992 -0.0734391 0.13125 0.0823114
1881 1 0.498338 0.15024 0.0515506 0.869914 -3.3332 0.296749 -0.227322 0.0632813
1802 1 0.524306 0.126466 0.0520636 0.586067 -3.33208 -0.00229437 -0.00243128 0.0421537
202 1 0.525211 0.125071 1.44492e-05 0.426371 -3.36649 -0.312738 -0.107948 0.0342783
208 1 0.548575 0.124748 0.0267763 0.508164 -3.3275 0.325762 0.299486 0.0483652
287 1 0.574677 0.147925 0.0255017 0.952697 -3.36056 0.114757 0.28884 0.44315
1806 1 0.574925 0.124225 0.0518587 0.59555 -3.3598 -0.0441453 0.501549 -0.205151
1885 1 0.550326 0.150311 0.0527068 0.772315 -3.34765 0.218369 -0.214229 -0.612815
285 1 0.55007 0.149367 0.00207059 0.468093 -3.32757 -0.202278 0.139882 -0.287145
212 1 0.601189 0.125001 0.0252683 0.313197 -3.29588 -0.337333 -0.103516 -0.0401102
289 1 0.599896 0.150654 -0.000273451 0.668331 -3.33998 -0.181986 -0.258152 0.00168029
291 1 0.623247 0.14879 0.0250742 1.20401 -3.28591 0.52282 0.612037 0.370284
1810 1 0.627028 0.124358 0.0501116 0.780218 -3.28851 -0.441386 -0.111378 0.352117
1889 1 0.601491 0.147769 0.0518545 1.61152 -3.35335 -0.353966 0.608315 -0.323341
210 1 0.626736 0.126435 0.000999142 1.18779 -3.34779 -0.128774 -0.809044 -0.364311
214 1 0.67462 0.12485 0.000803814 0.270461 -3.32714 -0.131382 -0.297082 -0.0483181
216 1 0.650619 0.124605 0.0267939 0.338828 -3.33901 0.163534 -0.445633 -0.348922
295 1 0.674968 0.148697 0.0260121 0.262747 -3.3268 0.0337574 0.180629 0.215555
1814 1 0.676794 0.124712 0.0510702 0.523895 -3.33766 -0.42939 -0.382649 0.0598406
1893 1 0.649971 0.148656 0.0510893 0.247414 -3.37073 0.177394 0.339756 0.11697
220 1 0.700345 0.122298 0.0270063 0.917463 -3.31712 0.120657 0.357139 -0.314834
299 1 0.723486 0.149387 0.0258632 0.215452 -3.39237 0.212318 0.16357 -0.0426673
1818 1 0.725876 0.124805 0.0506262 0.201589 -3.32693 -0.0879152 0.100712 -0.040055
1897 1 0.69943 0.149256 0.0505552 0.194403 -3.32183 0.112952 0.106713 0.165875
224 1 0.750515 0.124603 0.026084 0.300973 -3.3286 -0.207753 -0.147236 -0.197754
303 1 0.775339 0.149542 0.0266207 0.466972 -3.35427 0.0752359 0.28416 -0.121893
1822 1 0.773659 0.125827 0.0508622 0.699315 -3.29543 0.607264 -0.0447249 -0.21597
1901 1 0.750444 0.151595 0.0493289 0.887871 -3.30977 -0.296922 -0.0524412 0.181805
222 1 0.774378 0.125388 0.000383489 0.652422 -3.29151 -0.294327 -0.264754 -0.0810593
301 1 0.748851 0.147752 0.00193389 0.963131 -3.30731 -0.217889 0.30754 -0.259735
228 1 0.799029 0.121614 0.0252191 1.86444 -3.23439 0.0745112 0.965476 0.313471
307 1 0.825318 0.14735 0.028006 1.21683 -3.28252 -0.643195 0.782296 -0.428389
1826 1 0.825662 0.124643 0.0530691 1.27497 -3.29008 -0.119825 0.0950164 -0.673496
1905 1 0.799875 0.151647 0.0529016 1.39727 -3.32653 0.274885 -0.411881 -0.501026
230 1 0.874807 0.124799 0.00179897 0.685298 -3.2739 -0.356946 0.143598 -0.52536
232 1 0.848004 0.125867 0.0246245 1.69539 -3.25453 0.779001 -0.437373 0.268142
311 1 0.875787 0.151205 0.0255619 0.691994 -3.30711 -0.118252 -0.464721 0.439709
1830 1 0.875951 0.124232 0.0489118 0.810092 -3.351 -0.0707705 0.62688 0.33622
1909 1 0.850432 0.150409 0.0509361 0.579275 -3.35724 0.39553 -0.143049 0.0812521
234 1 0.926213 0.125774 0.00126801 0.607268 -3.33432 0.0536129 -0.086652 -0.425195
236 1 0.899836 0.125578 0.0225458 1.73366 -3.26538 0.418982 -0.102476 1.23547
315 1 0.923543 0.151106 0.0247522 1.0683 -3.29717 0.59197 -0.186797 0.358601
1834 1 0.927525 0.123776 0.0511076 1.21879 -3.31957 -0.789001 0.438745 -0.501047
1913 1 0.901789 0.149012 0.0513623 0.617508 -3.35897 -0.352119 -0.21674 -0.0935097
313 1 0.900306 0.150139 0.000274965 0.35792 -3.29505 0.0424236 -0.0374099 -0.380801
164 1 1.00224 0.122878 0.0248596 0.909891 -3.31801 -0.434472 0.390637 0.172811
238 1 0.975842 0.125317 0.000839605 0.473789 -3.31649 0.23047 -0.0103366 0.281235
240 1 0.949592 0.127738 0.0249576 1.36036 -3.37005 0.243146 -0.387523 0.200778
317 1 0.950077 0.153372 0.00169602 2.08521 -3.27525 0.171748 -0.75179 -0.30969
319 1 0.975857 0.151272 0.0240416 0.523592 -3.317 -0.0588848 -0.724923 -0.00368595
1838 1 0.976067 0.122792 0.0478066 1.85519 -3.30852 -0.319656 0.725791 0.377166
1917 1 0.951132 0.151698 0.0502595 0.961081 -3.30476 -0.438094 -0.85342 -0.4169
241 1 1.00169 0.151085 -0.00149468 1.452 -3.32084 -0.0806605 -0.740398 0.433092
242 1 0.0246547 0.17474 0.000505978 0.548572 -3.31381 0.574375 -0.126844 -0.444881
248 1 0.0491569 0.174005 0.0247476 0.591318 -3.32307 0.290273 -0.0586509 -0.0103039
323 1 0.0240142 0.199054 0.0246904 0.573685 -3.31926 0.239612 0.149711 -0.116376
1842 1 0.0247361 0.173808 0.04968 0.369393 -3.35106 0.380208 -0.0599462 0.0482834
1921 1 -0.000106646 0.197701 0.0493838 0.682498 -3.37825 -0.0722872 0.24888 0.131298
1925 1 0.0499152 0.199124 0.0482525 0.522392 -3.32784 0.250392 -0.00216811 0.157751
325 1 0.0512641 0.198846 -6.44453e-05 0.228986 -3.35719 -0.162014 0.137912 -0.223873
252 1 0.101494 0.173064 0.0254561 0.542292 -3.35745 -0.22995 0.187702 0.338173
327 1 0.0755083 0.196721 0.0248553 1.32224 -3.33146 0.0631726 0.544779 0.169797
329 1 0.0993508 0.197418 0.00057647 1.24856 -3.23999 1.10258 0.276315 0.265347
1846 1 0.0745424 0.174763 0.0505895 0.890025 -3.28691 0.643409 -0.258479 -0.692128
1929 1 0.100364 0.20166 0.0506015 1.38102 -3.32281 0.0050755 -0.779322 -0.210799
246 1 0.0762435 0.173785 -0.000771735 0.330173 -3.31687 -0.238006 -0.38209 -0.0488697
256 1 0.15161 0.173865 0.0256739 0.559251 -3.28887 -0.294354 0.66088 0.00503129
331 1 0.125871 0.198919 0.025742 0.276987 -3.39318 0.0022657 0.0364003 -0.143953
1850 1 0.126124 0.174982 0.0523722 0.917407 -3.32857 -0.291688 -0.216312 -0.61433
1933 1 0.151203 0.200922 0.0505201 0.505318 -3.34184 -0.23095 -0.300233 -0.153415
254 1 0.174528 0.174283 0.000389774 0.739719 -3.36192 0.45057 -0.318358 -0.00133537
260 1 0.201792 0.174089 0.0270747 1.22436 -3.31235 -0.220472 0.0757172 -0.614588
335 1 0.176983 0.198946 0.0254025 0.829481 -3.35321 -0.33204 0.158572 -0.32802
1854 1 0.176184 0.174872 0.0511384 0.226309 -3.30097 -0.0953056 0.132278 0.0180202
1937 1 0.199473 0.200584 0.0505202 0.367069 -3.28855 0.320453 -0.159324 -0.257418
337 1 0.200113 0.197851 -0.000877931 1.38529 -3.29306 -0.137534 0.715684 0.575686
264 1 0.249417 0.174835 0.0246999 0.203992 -3.29083 -0.178244 0.318714 -0.164899
339 1 0.223864 0.200626 0.0244078 0.593147 -3.31546 -0.280747 -0.311142 -0.00769283
1858 1 0.226126 0.173512 0.0499312 0.550899 -3.35792 -0.238819 0.200817 0.325897
1941 1 0.249332 0.199458 0.0478627 0.701884 -3.31834 0.029618 0.0253213 0.505601
341 1 0.249426 0.201086 1.72259e-05 0.187029 -3.32528 0.110211 -0.424903 -0.147022
268 1 0.300073 0.177569 0.024582 0.850156 -3.3099 -0.218119 -0.445876 0.0985064
343 1 0.275135 0.20099 0.0244543 0.370198 -3.35909 0.014539 -0.229224 0.139259
1862 1 0.274239 0.174968 0.0505092 0.608593 -3.31034 0.221137 0.188021 -0.359677
1945 1 0.300398 0.199332 0.0511903 1.08782 -3.34235 -0.290478 0.443862 -0.226086
272 1 0.349962 0.17652 0.0253657 0.424834 -3.36611 -0.414066 -0.117986 -0.0507095
347 1 0.323248 0.203169 0.0241947 1.54908 -3.32108 0.205898 -0.63134 0.144012
349 1 0.35173 0.200855 -0.000112571 0.817488 -3.27918 -0.916028 -0.288256 0.353184
1866 1 0.324095 0.17532 0.0497101 0.361517 -3.3297 0.619767 0.265154 -0.0126215
1949 1 0.349927 0.201528 0.0511767 0.620118 -3.35761 -0.0315365 -0.240052 -0.478589
276 1 0.400626 0.173779 0.0264657 0.622609 -3.32074 -0.196182 0.442431 -0.210472
351 1 0.375995 0.198905 0.0244822 0.537314 -3.3316 -0.183336 0.403383 0.417896
1870 1 0.373672 0.174931 0.0504658 0.388087 -3.27641 0.532094 0.16929 -0.22217
1953 1 0.399554 0.200061 0.0504234 0.28683 -3.31348 0.135728 -0.0170763 -0.154021
280 1 0.449357 0.173771 0.0272586 1.1417 -3.2914 0.241273 0.441001 -0.757091
355 1 0.426253 0.200523 0.0250488 0.575596 -3.30266 -0.617689 -0.320655 -0.0198835
1874 1 0.42378 0.176585 0.0507176 1.0972 -3.30461 0.165709 -0.299015 0.276103
1957 1 0.449544 0.199422 0.0495845 0.51676 -3.32667 0.100145 0.17943 0.605914
1878 1 0.475022 0.17481 0.0509321 0.246797 -3.33029 -0.232108 0.00123714 0.185677
284 1 0.49933 0.174648 0.0279863 1.15991 -3.31942 -0.0297648 0.095144 -0.933605
359 1 0.473967 0.20171 0.025939 1.1603 -3.30396 0.0562532 -0.688674 -0.160021
361 1 0.500922 0.198628 -0.000254454 0.73788 -3.35675 -0.187884 0.32201 0.235863
363 1 0.52486 0.200295 0.0252881 0.362657 -3.37417 0.0467266 0.110139 0.104753
1882 1 0.525367 0.174192 0.0495227 0.697416 -3.30744 0.113021 0.298339 0.287591
1961 1 0.500209 0.198603 0.0510699 0.472852 -3.32941 -0.0846007 0.459731 0.0897038