ITEM: TIMESTEP
15250
ITEM: NUMBER OF ATOMS
32000
ITEM: BOX BOUNDS pp pp pp
6.0574775802322396e+00 7.4942522419767812e+01
-2.8530410190477369e+00 8.3853041019047964e+01
-4.7034099515521675e+00 8.5703409951551393e+01
ITEM: ATOMS id type xs ys zs c_csym c_peratom fx fy fz
4 1 0.00933376 0.0439891 0.0306769 6.72759 -3.21569 0.0887804 -1.07158 0.208164
3 1 0.0203022 0.00770162 0.0238798 1.81807 -3.30166 0.0521676 0.446984 -0.0373674
8 1 0.0502516 0.0320805 0.0240792 1.80968 -3.28944 -0.320638 0.245896 0.492302
12 1 0.0893896 0.027995 0.0209713 0.688566 -3.3007 -0.0661411 -0.408071 -0.0143058
1609 1 0.085955 0.00199222 0.044591 1.35642 -3.34528 0.230677 0.417644 -0.135068
1610 1 0.113375 0.0277431 0.0456499 0.455777 -3.31853 0.258359 0.207582 -0.138979
16 1 0.128472 0.0226519 0.0160272 1.15234 -3.31194 -0.146515 -0.698134 0.136086
1614 1 0.155135 0.0230698 0.0416267 0.770379 -3.26105 -0.0275153 -0.0339755 -0.375459
95 1 0.154318 0.0446893 0.0178066 0.293937 -3.28231 0.383424 0.480726 0.133996
20 1 0.168394 0.013585 0.0109475 7.62085 -3.33347 -0.0171172 -0.46945 0.53601
1697 1 0.180498 0.0469398 0.041571 0.465582 -3.31291 0.291363 -0.168203 0.031659
99 1 0.197373 0.0370018 0.0113516 7.87914 -3.25482 -0.600449 -0.260575 0.345597
24 1 0.228331 0.0137207 0.016977 1.26274 -3.33225 -0.326765 -0.28964 0.126964
1618 1 0.194517 0.0144416 0.0352973 7.17535 -3.3959 0.0963028 -0.00676846 0.293479
1701 1 0.220339 0.0399833 0.0373734 7.28388 -3.29148 -0.294802 -0.559696 0.104163
1622 1 0.251979 0.013811 0.0442828 2.54463 -3.28243 0.14211 0.0514703 -0.748246
103 1 0.254004 0.0376448 0.0197171 1.50806 -3.2927 -0.0439481 -0.0719941 0.123302
28 1 0.285155 0.0133185 0.0208301 1.01693 -3.32478 -0.0955195 0.360554 -0.0309048
1705 1 0.280501 0.0370024 0.0441249 2.18228 -3.25533 0.0212251 0.200541 -0.177498
1626 1 0.309592 0.0155673 0.0463021 0.490918 -3.30543 0.351739 -0.0832817 -0.199393
1709 1 0.309987 0.0403769 0.0236522 1.0116 -3.30356 0.429287 -0.312242 -0.459026
107 1 0.280626 0.0387661 0.999034 2.08988 -3.32071 0.753019 0.185149 -0.501783
1630 1 0.338557 0.0159116 0.0237596 0.747571 -3.34064 0.0262984 0.269491 0.0695264
1713 1 0.3669 0.0390466 0.0237359 2.28551 -3.29 -0.361067 0.213452 0.824892
36 1 0.370249 0.0178815 0.00213969 0.428134 -3.29187 -0.147916 -0.241328 0.246824
32 1 0.314746 0.0174634 -0.00304001 2.3182 -3.28798 -0.317968 -0.114366 0.788521
115 1 0.396406 0.0429247 0.00593907 0.899205 -3.24233 0.475681 -0.355429 -0.14282
1634 1 0.399814 0.0177 0.0283472 1.49885 -3.28327 -1.05132 0.210869 -0.332745
40 1 0.427096 0.0203189 0.00677137 0.248871 -3.29512 0.017573 0.327679 0.103864
1717 1 0.424931 0.0431594 0.0313277 1.25094 -3.32075 -0.494791 0.197699 -0.500735
119 1 0.454758 0.0463587 0.0073699 1.58075 -3.32984 -0.541718 -0.199699 0.366956
1638 1 0.452789 0.021198 0.0306604 0.426494 -3.28595 -0.164059 0.05564 0.368694
44 1 0.480014 0.0222702 0.00986033 1.34228 -3.19982 0.870672 0.294086 0.329608
1721 1 0.477416 0.0480483 0.0347778 1.28405 -3.31055 0.256445 -0.169797 -0.721156
1642 1 0.507603 0.0246203 0.0323561 6.8965 -3.29791 -0.204077 0.221774 0.775995
123 1 0.507744 0.0493045 0.0133079 0.674988 -3.35245 0.253134 -0.137722 -0.0597834
48 1 0.539024 0.025353 0.0149304 0.753085 -3.25208 0.103408 0.346567 -0.277187
1645 1 0.538411 0.00379535 0.0386275 5.63766 -3.29884 -0.313612 -0.446438 0.213455
1725 1 0.534712 0.0514009 0.0378459 1.11589 -3.34906 -0.204704 -0.315984 -0.284386
52 1 0.594471 0.0308629 0.0184128 0.574158 -3.31285 0.258964 -0.312278 -0.196935
127 1 0.563825 0.0500029 0.0156901 1.43232 -3.28332 0.0923298 0.592881 -0.307087
47 1 0.567235 0.00395237 0.0185093 1.22591 -3.29308 0.485559 -0.153397 -0.463415
1646 1 0.565654 0.0296722 0.0382549 2.14161 -3.28284 -0.508199 -0.379114 0.700037
1649 1 0.593377 0.00567595 0.0413182 0.546416 -3.35517 0.352403 0.0864112 0.156973
1650 1 0.620972 0.0320427 0.0433832 0.226423 -3.38135 -0.297516 0.027853 -0.122759
51 1 0.626101 0.00855913 0.0231501 1.22256 -3.36081 0.0195032 -0.157586 -0.324902
56 1 0.653367 0.0333624 0.0226517 0.849484 -3.29316 -0.623109 -0.168723 0.0916427
55 1 0.67814 0.0100884 0.0250682 2.24556 -3.31715 0.752404 -0.123409 -0.0454507
54 1 0.682318 0.0336619 0.00189908 0.425906 -3.3483 -0.10912 -0.0913649 -0.0937533
60 1 0.70997 0.0347538 0.025973 0.713463 -3.31101 -0.530778 0.217494 0.154686
57 1 0.71187 0.0112876 0.00626651 0.568298 -3.3428 0.203371 -0.0586928 -0.243363
58 1 0.739354 0.0357924 0.00609932 0.729011 -3.28945 0.146392 0.616148 0.291113
59 1 0.740591 0.0135711 0.0315318 1.3895 -3.19918 -0.585295 -0.1375 -0.827784
64 1 0.765324 0.0396954 0.0307074 0.811779 -3.32581 0.265203 -0.25669 0.0550259
61 1 0.768683 0.0138554 0.0114016 0.607587 -3.31887 0.300443 0.302382 -0.539236
63 1 0.794991 0.0174158 0.0353422 0.232054 -3.29026 -0.237862 0.384309 0.157322
62 1 0.795273 0.0417612 0.0104905 0.802842 -3.36869 0.141993 -0.536268 0.110116
68 1 0.823599 0.0410226 0.0365616 0.627384 -3.27936 -0.459832 0.333322 -0.271131
65 1 0.825322 0.018599 0.0164068 0.94765 -3.27728 0.401404 -0.0266889 -0.73415
66 1 0.854407 0.0439795 0.0156162 0.478228 -3.30756 -0.335822 -0.259168 0.0571488
67 1 0.852269 0.0186075 0.039349 7.76435 -3.32463 0.368464 0.0139277 0.116441
72 1 0.880204 0.0454517 0.0403758 7.11646 -3.33853 -0.0299619 -0.0416743 0.129047
69 1 0.884377 0.0216461 0.0207288 6.304 -3.2628 -0.430458 -0.107039 -0.314661
70 1 0.913654 0.0441003 0.0218316 9.22393 -3.18467 -0.935086 0.868762 0.154273
73 1 0.920581 0.0131927 0.0303787 7.09662 -3.26484 0.422101 -0.381895 -0.0561545
78 1 0.9809 0.0409156 0.00863777 10.4749 -3.27304 -0.169707 -0.0716512 0.182114
74 1 0.949341 0.0376334 0.0306904 12.7137 -3.16651 -0.00329069 0.178214 -0.829429
79 1 0.981395 0.0142429 0.030519 7.37765 -3.31966 0.0425007 0.470605 -0.393286
77 1 0.954016 0.016158 0.00622132 7.21021 -3.32592 0.0295461 0.00522649 -0.114226
83 1 0.0380342 0.0670095 0.032245 8.7603 -3.25099 -0.479765 -0.0354107 -0.620166
81 1 0.00989506 0.0615479 0.00134979 7.16139 -3.22504 0.153531 0.816229 -0.183315
82 1 0.0355173 0.0888547 0.002985 1.8087 -3.21883 0.420406 -0.918754 -0.187024
158 1 0.0243296 0.10156 0.0277462 7.14469 -3.27284 -0.2825 -0.283593 0.596607
88 1 0.0619706 0.0924348 0.0333957 7.81644 -3.27359 -0.171717 -0.187277 -0.363594
85 1 0.052064 0.0575877 0.9989 1.39043 -3.26273 -0.865061 0.0177054 0.399378
87 1 0.0753983 0.057152 0.024397 1.74556 -3.27111 -0.163586 0.384027 0.171397
92 1 0.101369 0.0834166 0.0283483 0.706296 -3.33856 -0.00307211 0.201646 -0.263667
86 1 0.076664 0.0808206 1.00238 1.7599 -3.33321 0.117695 0.517958 0.0127464
91 1 0.115053 0.0533328 0.0229756 1.06568 -3.2678 0.0879374 -0.330756 -0.804317
96 1 0.141006 0.076693 0.0232659 0.384896 -3.34261 0.187264 0.347539 0.0560969
100 1 0.181298 0.0693525 0.019014 0.333574 -3.33376 -0.100716 0.0074065 -0.339543
175 1 0.169682 0.101748 0.025447 0.58813 -3.2839 -0.118166 -0.142586 -0.59584
173 1 0.144789 0.100687 0.999758 0.39755 -3.29225 0.283255 -0.516303 -0.162549
1698 1 0.205701 0.0717088 0.0435755 0.68079 -3.29216 0.226107 -0.304092 -0.295201
104 1 0.219759 0.0603652 0.0147379 7.82481 -3.24934 0.533418 0.812486 -0.450204
183 1 0.247013 0.0878472 0.0152569 7.9395 -3.32583 0.0492547 -0.153249 -0.177439
1702 1 0.245822 0.0635847 0.0363365 6.13709 -3.28918 0.238225 0.325528 0.403783
1781 1 0.232053 0.0955884 0.0452993 1.4067 -3.27145 0.0599064 0.14063 -0.949967
179 1 0.208588 0.0936679 0.019791 0.463593 -3.30843 0.189017 0.278054 0.338503
1785 1 0.272144 0.0887202 0.0379025 6.42652 -3.22494 -0.186982 0.204466 -0.400202
1706 1 0.282531 0.0633533 0.0228837 4.2606 -3.26039 -0.410271 -0.168135 -0.722842
1712 1 0.30745 0.0628043 0.0458925 2.42658 -3.24697 0.625534 -0.479387 0.101972
1789 1 0.310732 0.0877565 0.0208223 3.68053 -3.30028 -0.374291 -0.255864 0.629765
112 1 0.310433 0.0645194 0.998997 0.714202 -3.35366 0.053593 -0.361633 -0.0631407
191 1 0.339319 0.0897775 -0.000220858 0.858229 -3.25809 -0.149492 -0.73502 0.376548
1710 1 0.340004 0.0635976 0.0231551 1.01036 -3.36163 -0.147551 0.0785329 0.0539762
1793 1 0.365441 0.090538 0.0274656 1.09375 -3.26405 -0.481883 -0.660647 -0.475835
116 1 0.370387 0.0651323 0.00236304 1.25203 -3.29211 -0.627648 0.287465 -0.140558
195 1 0.393441 0.090799 0.00234107 0.975946 -3.30722 0.238713 -0.106635 0.521953
1714 1 0.392219 0.066122 0.0282917 0.651967 -3.34711 0.108371 -0.126072 0.0518694
120 1 0.422912 0.0667591 0.00571789 0.622068 -3.30841 -0.215069 0.179713 0.313326
1797 1 0.418469 0.0916394 0.0281729 0.542329 -3.29153 -0.649256 -0.0957444 0.270308
1718 1 0.447213 0.0692217 0.0312085 0.64012 -3.32741 0.218563 -0.140148 0.267634
199 1 0.447853 0.0912124 0.00894333 1.19106 -3.27738 0.493606 0.404399 -0.58433
124 1 0.479421 0.0701841 0.00840552 1.28708 -3.30558 -0.108813 0.568502 0.479493
1801 1 0.474444 0.093396 0.0333277 0.498876 -3.26041 -0.319376 0.545148 -0.261433
1722 1 0.50207 0.0739964 0.0357706 1.63662 -3.22072 1.2102 -0.710856 -0.664046
203 1 0.507362 0.0968055 0.0134078 1.05084 -3.33517 -0.493778 -0.316041 -0.463799
128 1 0.535819 0.0740314 0.0142129 0.267296 -3.34739 -0.297564 -0.0616864 0.0882087
1805 1 0.532621 0.097928 0.0379383 0.823458 -3.25006 -0.722579 -0.123045 -0.265083
1726 1 0.560251 0.0763906 0.0395245 0.543189 -3.28515 0.247795 -0.37722 -0.102745
207 1 0.56166 0.0981168 0.0157504 0.333235 -3.32796 -0.0597526 0.32264 -0.025452
132 1 0.591525 0.0758674 0.0193007 1.07694 -3.30834 -0.221703 0.722462 -0.371115
1809 1 0.587912 0.100304 0.0406322 0.459996 -3.34014 0.324234 -0.0433781 -0.30768
211 1 0.618273 0.101179 0.0170027 1.34198 -3.3733 -0.0346114 -0.0561734 0.261708
1729 1 0.589327 0.0552712 0.0411266 1.23619 -3.27878 0.0456063 -0.334893 0.237455
1730 1 0.621653 0.0798169 0.043493 3.59036 -3.25094 -1.16016 -0.406198 -0.381747
131 1 0.620284 0.0558135 0.0199752 0.779196 -3.23177 0.375087 -0.561201 0.687329
136 1 0.648415 0.0785533 0.0215442 0.822581 -3.33994 0.339177 0.451305 -0.217715
135 1 0.679344 0.0575564 0.0238454 0.18706 -3.32457 0.112174 -0.0841063 -0.074665
1733 1 0.649419 0.0554369 0.0445475 0.757931 -3.3251 -0.454891 -0.0343712 0.0524361
133 1 0.650642 0.0542355 1.00052 1.53933 -3.25993 0.830555 0.368942 -0.611291
134 1 0.677681 0.0813349 0.998709 0.89703 -3.35322 -0.31001 0.0126832 0.374707
140 1 0.70391 0.0821406 0.0263678 0.747255 -3.29276 0.185979 0.0126747 -0.749043
137 1 0.708502 0.0595779 0.00296791 0.409739 -3.3613 0.257575 0.106861 0.25084
139 1 0.734763 0.0599085 0.0287515 0.219123 -3.30617 0.0485185 0.238963 -0.406026
138 1 0.736356 0.0838261 0.00665624 0.951188 -3.33328 -0.248529 0.107238 -0.102353
144 1 0.76158 0.0846927 0.0318467 1.21871 -3.26349 -0.0727302 0.586287 -0.588151
141 1 0.765316 0.0627009 0.00791907 0.242042 -3.31685 -0.0196269 -0.138451 -0.107227
143 1 0.78951 0.0652172 0.033033 1.44949 -3.28815 0.991552 -0.679345 0.143747
142 1 0.793154 0.0870362 0.0105883 0.532483 -3.35912 -0.120066 0.143238 -0.475575
145 1 0.822248 0.0649389 0.011701 0.469474 -3.3492 0.158308 0.250332 0.304609
148 1 0.818936 0.0890201 0.0350871 0.247105 -3.29251 0.0381907 -0.379978 -0.131385
147 1 0.847537 0.0661428 0.037366 0.581585 -3.33977 0.199937 0.21908 0.130851
146 1 0.850028 0.0899643 0.015178 0.391059 -3.35092 -0.0715061 0.146237 -0.246372
152 1 0.876333 0.0900502 0.0395611 0.988089 -3.28567 -0.264492 0.69434 -0.0269535
149 1 0.879126 0.0687333 0.0170811 0.507265 -3.3261 0.490914 -0.1169 -0.0467351
151 1 0.906701 0.0703022 0.0420889 6.63631 -3.2656 0.397552 -0.567713 -0.471511
150 1 0.90481 0.0940842 0.0179417 0.680469 -3.32859 0.430797 -0.283942 0.0764121
156 1 0.933827 0.094428 0.0417673 0.733353 -3.25189 -0.181681 -0.0700347 0.361081
153 1 0.935118 0.0717 0.0198834 7.44609 -3.30494 0.0427862 -0.286965 -0.0805742
155 1 0.9601 0.0696131 0.0442218 9.19149 -3.22731 0.829498 0.357009 -0.496681
154 1 0.963624 0.0937127 0.0221723 1.01857 -3.32752 0.63932 0.271763 -0.115917
157 1 0.996964 0.0716628 0.0282975 14.3102 -3.1769 -0.501254 1.17299 -0.5094
30560 1 0.997994 0.0968056 0.00377445 8.20809 -3.32411 -0.631017 -0.400137 0.281371
161 1 0.0528044 0.125708 0.0316696 8.42611 -3.23538 -0.814647 -0.312224 -0.697038
238 1 0.0165704 0.14554 0.0250494 1.19414 -3.2597 0.407226 0.246943 0.673401
30564 1 0.0480582 0.146062 0.00514736 6.25586 -3.2386 0.486359 0.0175623 0.465661
30639 1 0.0224622 0.123119 0.00545536 5.78204 -3.19647 0.155977 -0.519873 -0.0169579
165 1 0.0610925 0.112486 0.0042105 2.5861 -3.29841 0.671562 0.161988 0.542387
162 1 0.0742087 0.150871 0.0290775 8.26762 -3.11854 0.163259 -0.50607 0.747385
167 1 0.088245 0.115418 0.0328109 5.48107 -3.26628 0.417828 -0.115205 -0.243962
166 1 0.0908664 0.136428 0.00725223 2.90353 -3.24786 -0.298233 -0.666244 -0.161468
169 1 0.105334 0.104596 0.00175191 2.2445 -3.28671 -0.773345 0.609455 0.535278
172 1 0.113404 0.139804 0.0334464 5.5211 -3.33039 0.0196777 -0.0565501 0.273111
171 1 0.128668 0.107862 0.0290616 0.576007 -3.32583 -0.301144 -0.171724 -0.216035
176 1 0.151937 0.133944 0.028697 2.65873 -3.2429 0.405664 0.00122006 0.815883
170 1 0.130684 0.129398 0.00448679 6.94997 -3.19379 -0.487411 0.236898 0.0668077
174 1 0.168758 0.125569 0.00327421 7.38916 -3.29195 0.989466 -0.0673527 -0.529309
180 1 0.194482 0.127749 0.0278056 7.69104 -3.18448 -0.352182 -0.638437 -1.08794
184 1 0.234169 0.120812 0.0196943 6.09139 -3.26773 0.0960354 -0.329423 0.0159193
259 1 0.217596 0.150698 0.0165959 6.75126 -3.25651 0.282817 -0.328734 -0.137616
178 1 0.209947 0.119294 0.996614 5.2655 -3.20598 -0.886838 -0.27955 0.3665
1782 1 0.257881 0.123358 0.0447794 6.58004 -3.25069 0.802461 -0.641951 -0.381233
188 1 0.27364 0.112181 0.0140878 8.81264 -3.26017 -0.543237 0.202896 -0.264994
263 1 0.257429 0.144844 0.0120209 6.2769 -3.35518 0.156739 0.0728437 -0.2278
1786 1 0.296101 0.114948 0.0361992 2.44138 -3.23065 0.10947 0.0967254 0.206659
267 1 0.297068 0.140356 0.00840474 1.24163 -3.31742 -0.296872 0.0652923 0.0938027
1865 1 0.281845 0.148015 0.0396392 2.1756 -3.17718 0.705583 -0.657287 -1.00291
192 1 0.309723 0.111485 1.00133 5.82848 -3.26857 -0.0896611 0.0191861 -0.530728
1869 1 0.320573 0.139599 0.0354077 1.06645 -3.32631 0.166518 0.535388 -0.23596
271 1 0.335934 0.13575 0.00312163 6.2987 -3.30747 -0.100098 0.296468 -0.0299137
1790 1 0.336229 0.11294 0.0261395 6.2355 -3.28107 -0.218973 -0.816415 0.0259203
196 1 0.363681 0.113036 0.00164243 0.573514 -3.2188 0.0393032 0.13284 0.413829
1873 1 0.362025 0.135136 0.0273558 7.32132 -3.21345 -0.403285 0.830208 0.374057
1794 1 0.388309 0.11397 0.0282916 0.446315 -3.23155 0.77591 -0.0754457 0.00796102
275 1 0.386167 0.138511 0.00442757 0.909034 -3.29287 0.401138 0.227188 -0.189016
200 1 0.417578 0.117079 0.00501255 1.00162 -3.32854 0.306329 -0.154178 0.264332
1877 1 0.415151 0.138732 0.0289696 0.313532 -3.33428 -0.149058 0.0213767 -0.198599
1798 1 0.444445 0.114842 0.0294874 1.33401 -3.2957 -0.0110889 0.608543 0.40014
279 1 0.445175 0.141363 0.00721459 0.4822 -3.33953 -0.0398336 -0.247932 -0.0903313
204 1 0.475951 0.117575 0.0120691 1.20512 -3.35691 0.134256 0.117757 -0.633261
1881 1 0.471942 0.141733 0.0335324 0.815664 -3.26889 -0.211438 0.0363447 -0.489131
1802 1 0.500319 0.121639 0.03639 0.918659 -3.2519 0.160473 -0.602177 -0.234923
283 1 0.499557 0.146699 0.0112788 1.70962 -3.29463 0.205885 -0.75498 0.0990646
208 1 0.529275 0.121271 0.0155134 1.45101 -3.32599 0.53966 0.408109 -0.43284
1885 1 0.525278 0.146454 0.0361471 0.73612 -3.31137 0.510535 -0.0845995 -0.271852
1806 1 0.557165 0.121266 0.0384559 0.70713 -3.2935 0.368382 0.790228 -0.210837
287 1 0.556307 0.146159 0.0151496 0.28144 -3.36891 0.00758136 0.114056 -0.062141
212 1 0.58751 0.12391 0.0175387 0.381706 -3.3431 -0.0588088 0.0190129 -0.0327577
1810 1 0.614257 0.126683 0.0399606 1.07154 -3.35648 -0.22248 -0.150772 0.275974
1889 1 0.581893 0.148264 0.0389868 0.666122 -3.32242 0.641643 -0.274132 -0.290043
291 1 0.615912 0.150077 0.0167269 1.35652 -3.32879 -0.419624 -0.0141892 0.595063
215 1 0.674202 0.105987 0.0198515 2.14586 -3.30544 0.191533 -0.639999 0.579115
1813 1 0.643684 0.10373 0.0427734 0.614569 -3.29854 0.362735 0.201356 0.153829
216 1 0.645083 0.126106 0.0212098 1.05727 -3.29368 -0.08242 0.606964 -0.251985
1893 1 0.639526 0.151534 0.0449366 1.20963 -3.27442 0.308584 -0.267312 -1.02238
1814 1 0.670912 0.126838 0.0454182 0.509818 -3.34338 -0.146661 0.0378116 0.0369813
214 1 0.676913 0.129447 0.99842 1.17219 -3.29461 -0.034726 -0.0659302 0.319266
220 1 0.702443 0.128414 0.0246792 0.525518 -3.27679 -0.234924 0.0479259 -0.320578
217 1 0.705147 0.103911 0.000937964 1.54952 -3.29111 -0.0381661 0.448424 0.378249
219 1 0.731203 0.107864 0.02651 0.607639 -3.31623 0.609185 -0.227724 -0.147199
218 1 0.731448 0.13087 0.00278701 0.551777 -3.35572 0.505167 -0.0478011 0.108804
224 1 0.759291 0.132412 0.027609 0.2385 -3.38567 -0.239904 -0.0212017 0.0123475
221 1 0.76342 0.109016 0.00488759 0.664114 -3.35493 -0.13354 0.121838 0.622017
223 1 0.79079 0.111111 0.03093 0.396738 -3.25014 -0.759212 -0.0232667 -0.0232358
222 1 0.789905 0.133703 0.0070665 0.399622 -3.3265 -0.061623 0.098651 0.170087
228 1 0.815693 0.136341 0.0324946 0.383197 -3.32419 0.408896 0.190721 -0.209935
225 1 0.819676 0.1116 0.0122756 0.582019 -3.32563 0.33333 0.033943 -0.691976
227 1 0.846433 0.113653 0.036599 0.526296 -3.27994 -0.155639 -0.342958 -0.238515
232 1 0.870188 0.136396 0.0366208 1.98212 -3.26247 0.749532 0.980362 0.138699
226 1 0.844844 0.136903 0.0107776 0.72724 -3.33315 0.0387156 0.17569 0.396209
229 1 0.878477 0.116054 0.0144205 1.42207 -3.26914 -0.938325 -0.34615 0.228226
231 1 0.902958 0.1168 0.0414247 0.731501 -3.36067 0.0277002 -0.243653 -0.242758
236 1 0.932023 0.141286 0.0407215 0.633303 -3.30983 -0.443904 0.0779668 0.229534
233 1 0.934514 0.117594 0.0199761 0.325242 -3.31368 -0.263928 -0.101982 -0.125941
230 1 0.902953 0.139046 0.0176159 0.579932 -3.33548 0.182538 0.64819 -0.0575805
235 1 0.959147 0.119294 0.0430123 0.786181 -3.31745 0.506399 -0.181936 0.2852
234 1 0.963542 0.144185 0.0207657 1.12087 -3.22389 -0.406101 -0.621215 0.156117
240 1 0.986634 0.143781 0.0460952 0.724662 -3.30037 0.504671 -0.1175 -0.0108606
237 1 0.99234 0.121478 0.0248852 0.549954 -3.30883 -0.452579 -0.515268 0.0176264
30640 1 0.991862 0.14286 0.00133636 0.499504 -3.23253 0.249577 0.331716 -0.50532
242 1 0.0458358 0.192447 0.00385945 0.447133 -3.31898 0.331868 -0.151187 -0.00624283
241 1 0.0440785 0.169642 0.0262298 0.578872 -3.30626 0.0341422 0.465441 0.283993
318 1 0.0153668 0.191962 0.0237825 0.167478 -3.27815 0.181675 -0.0533174 0.213517
30719 1 0.0194352 0.167401 0.00233331 0.439436 -3.32803 -0.207483 0.351849 -0.67511
319 1 0.0146853 0.168929 0.047337 0.234119 -3.30906 0.463086 -0.096033 -0.461639
248 1 0.0722847 0.194842 0.029773 0.544676 -3.253 -0.324107 -0.330267 -0.498496
245 1 0.0767258 0.168466 0.0062198 7.34737 -3.32034 0.00367193 0.804617 -0.46417
247 1 0.102016 0.171751 0.0328152 10.929 -3.22496 -0.292178 0.148801 -0.290839
246 1 0.101458 0.19533 0.00982412 8.51848 -3.31155 0.0780483 -0.193452 -0.679856
249 1 0.116049 0.160569 0.00420561 6.2675 -3.30201 0.0736803 0.371806 -0.134303
252 1 0.128823 0.194781 0.0309582 12.2703 -3.20769 0.027499 0.88762 1.0523
251 1 0.138642 0.164381 0.0316046 5.67594 -3.24325 0.796613 -0.159059 0.0963651
256 1 0.168284 0.187427 0.0334822 3.46868 -3.31712 -0.338035 -0.0498472 0.114997
250 1 0.14335 0.188376 0.00591477 1.01783 -3.1864 -0.037809 -0.534722 -0.494057
255 1 0.179834 0.15587 0.0238927 5.83169 -3.28572 -0.511673 0.414176 0.11305
253 1 0.153746 0.155669 -0.00170105 3.47126 -3.33198 0.134382 0.0717378 0.00415287
254 1 0.180625 0.181655 0.00364661 2.97727 -3.28222 0.338787 -0.364821 -0.426371
260 1 0.20702 0.17889 0.0271021 1.52663 -3.23461 -0.433298 0.33989 0.359624
264 1 0.244067 0.175242 0.0217366 0.505139 -3.29616 0.485016 -0.0155093 -0.304686
1861 1 0.243056 0.152116 0.0424057 5.98598 -3.24899 -0.166234 0.23631 0.048049
268 1 0.283935 0.170229 0.0154389 0.653069 -3.28799 -0.612754 0.121684 0.0196535
1866 1 0.309002 0.171344 0.0424771 0.851683 -3.26168 0.471168 -0.0377012 -0.545398
347 1 0.308083 0.197185 0.0148091 1.33657 -3.26809 0.196433 0.157402 0.551815
1862 1 0.271377 0.1768 0.04547 0.899598 -3.26831 -0.559035 0.588866 0.15867
272 1 0.32112 0.166798 0.0124189 1.53443 -3.25828 0.448889 -0.344066 -0.133259
276 1 0.358871 0.16251 0.00415161 6.61989 -3.3249 0.295161 -0.414113 -0.127739
351 1 0.348252 0.191441 0.0107849 0.489381 -3.2862 -0.0353458 0.331079 0.55237
1870 1 0.34826 0.165558 0.0350136 0.8441 -3.32159 -0.471165 0.195795 0.514164
1953 1 0.373753 0.193273 0.0368446 1.22048 -3.2868 -0.331066 -0.0417967 -0.42141
1949 1 0.334064 0.197551 0.0401052 0.804734 -3.34551 -0.0716731 -0.220316 -0.0855373
355 1 0.386225 0.187613 0.0032856 6.96517 -3.28613 0.0664734 -0.485925 0.187798
1874 1 0.385299 0.163592 0.0309559 8.78369 -3.27885 0.61278 -0.564145 -0.765199
280 1 0.412769 0.163117 0.00585703 0.957815 -3.35539 0.0384331 -0.0577699 0.0339762
1957 1 0.412502 0.187449 0.0277792 6.73751 -3.33689 0.0161546 -0.257112 0.22752
359 1 0.441474 0.187579 0.00643485 0.61205 -3.29617 -0.179891 0.334534 -0.476259
1878 1 0.442835 0.162838 0.0284521 1.50642 -3.27134 -0.201547 0.192562 0.131439
284 1 0.471541 0.167591 0.00547253 3.01655 -3.22488 -0.213355 -0.130897 0.564674
1961 1 0.464208 0.188373 0.0303594 1.72462 -3.27757 0.710598 0.28875 0.134708
1882 1 0.495843 0.166923 0.0352314 0.922977 -3.34495 0.0259959 0.638625 -0.293447
363 1 0.497086 0.190561 0.0112204 1.57057 -3.31164 0.179539 0.261895 -0.0656007
288 1 0.526095 0.16977 0.0113737 0.732067 -3.32521 0.500586 0.0151711 0.534092
1886 1 0.552712 0.169919 0.0370954 0.514423 -3.3316 -0.367906 0.186432 -0.574947
367 1 0.55202 0.196756 0.0133028 1.27125 -3.33535 -0.152772 -0.512865 -0.118354
1965 1 0.523755 0.19331 0.0350189 0.595196 -3.35386 -0.335012 -0.28822 -0.178311
292 1 0.58438 0.171306 0.015832 0.69107 -3.36168 -0.282231 0.0177837 0.209691
1969 1 0.576367 0.196178 0.0373551 1.40901 -3.30241 0.411559 -0.266772 -0.266656
1890 1 0.611189 0.173855 0.0409838 0.846271 -3.32902 -0.483474 -0.156847 -0.21806
371 1 0.610231 0.195086 0.0180715 1.20339 -3.27854 -0.233958 0.35541 -0.306249
295 1 0.672941 0.151499 0.0246317 1.45116 -3.34718 -0.808137 0.0499014 -0.472447
296 1 0.640564 0.174828 0.019953 0.569776 -3.30959 0.315423 -0.566266 0.0990727
1973 1 0.63694 0.199382 0.0389983 1.84166 -3.29032 -0.0097756 -0.266723 1.15312
1894 1 0.668298 0.17717 0.0470061 2.55317 -3.26439 -0.416692 -0.615778 -1.0953
375 1 0.668652 0.197816 0.0213886 0.995136 -3.24197 -0.262483 -0.0601114 -0.325155
1897 1 0.698622 0.150248 0.0463572 1.91168 -3.28203 0.0366832 0.616017 0.571548
299 1 0.727382 0.153858 0.0253687 0.469954 -3.29102 0.53205 -0.043926 0.351479
300 1 0.697741 0.176211 0.024039 0.388037 -3.27673 -0.332587 0.023526 0.0276527
1898 1 0.722093 0.177584 0.0473122 0.632682 -3.33265 0.136661 0.219296 0.279382
298 1 0.726362 0.178197 0.00373498 0.694093 -3.31354 0.572256 -0.252109 -0.417425
297 1 0.702358 0.152239 0.00262335 0.852904 -3.29731 -0.336821 0.445671 -0.624364
304 1 0.753491 0.179746 0.029584 0.975454 -3.35494 0.104338 -0.111888 -0.53585
303 1 0.785002 0.156586 0.0298244 0.647608 -3.32929 -0.15549 0.499018 0.262381
302 1 0.78469 0.18293 0.00710664 0.643624 -3.33239 0.154243 -0.127414 0.104786
301 1 0.760423 0.157727 0.00613119 1.10254 -3.34852 -0.535475 -0.336533 -0.142036
308 1 0.812561 0.18209 0.0322598 1.22941 -3.33885 -0.431903 -0.243474 -0.112433
305 1 0.813173 0.161337 0.00889427 1.35867 -3.33585 0.390372 -0.478814 0.142243
307 1 0.844233 0.161207 0.0337177 1.90878 -3.25175 -0.944357 -0.499188 0.0752591
312 1 0.866626 0.184922 0.0353492 0.508953 -3.28376 0.489798 0.606696 0.159606
306 1 0.840564 0.185526 0.0102688 0.535471 -3.31893 0.101142 -0.210752 -0.0116293
309 1 0.87027 0.162938 0.0121747 0.995658 -3.31906 0.6543 -0.23428 -0.0122126
311 1 0.89823 0.164141 0.0381229 0.549717 -3.35148 -0.181419 -0.59263 0.105495
316 1 0.924513 0.188518 0.0392802 1.01128 -3.27752 -0.0148853 0.00777036 0.529613
313 1 0.931584 0.16343 0.0191421 0.75304 -3.34134 -0.377698 0.254651 -0.357322
310 1 0.899127 0.185014 0.0154748 1.21451 -3.31652 0.0959968 0.403858 -0.36952
315 1 0.960188 0.166203 0.0414524 1.40047 -3.25227 -0.693831 -0.0331871 0.676895
320 1 0.985686 0.191289 0.0441214 0.482765 -3.28489 -0.043846 0.0348539 -0.112248
317 1 0.988573 0.168778 0.0216107 0.888737 -3.28761 0.114602 0.031155 -0.0203451
314 1 0.955114 0.190083 0.0228492 3.69365 -3.27536 0.707452 0.100434 -1.14277
30720 1 0.988806 0.190309 -0.00170242 0.614464 -3.36015 0.128838 -0.202501 0.199069
323 1 0.0433588 0.218104 0.0262032 0.834797 -3.31643 -0.348031 -0.0940442 -0.401589
324 1 0.0101352 0.239262 0.0195187 1.80507 -3.27054 0.598429 0.0866476 0.622247
399 1 0.0108366 0.217125 0.0448838 0.519551 -3.31285 0.38035 -0.318761 0.046979
321 1 0.0167267 0.213508 0.00221094 1.47343 -3.28347 0.0096869 0.609726 -0.569015
322 1 0.043577 0.242013 0.00452862 2.05095 -3.32164 -0.107009 -0.403152 -0.643026
328 1 0.072463 0.242784 0.0246225 1.65755 -3.26066 -0.794293 -0.283421 0.602911
325 1 0.0708342 0.217528 0.00439654 1.45787 -3.32495 0.40169 0.369752 0.220709
327 1 0.0993218 0.219086 0.0294592 0.253005 -3.2822 0.0182805 0.155588 -0.317049
332 1 0.126323 0.243381 0.0292628 0.41204 -3.25761 0.0549706 0.21447 0.317692
326 1 0.101345 0.243798 0.00669925 0.472054 -3.22863 0.0335086 -0.376135 -0.881078
329 1 0.131261 0.219629 0.00886391 7.32809 -3.3365 -0.339431 -0.12716 0.417542
331 1 0.157149 0.221822 0.0344705 9.9588 -3.19941 -1.01545 -0.662771 -0.280848
336 1 0.182233 0.245515 0.0352157 8.36148 -3.11961 -0.105653 0.0694393 0.31149
330 1 0.157264 0.243852 0.0111095 7.82182 -3.28993 -0.0562209 0.0202192 -0.466702
333 1 0.170536 0.211848 0.0071878 0.86879 -3.25398 -0.222139 0.094187 -0.39181
335 1 0.191962 0.212809 0.0323069 1.36533 -3.19133 0.824156 -0.526066 0.0377509
334 1 0.195658 0.236382 0.00915673 1.47881 -3.25844 0.212963 -0.095713 -0.588071
340 1 0.217573 0.236562 0.0347516 1.02899 -3.23235 1.21123 -0.0687896 -0.456877
337 1 0.20801 0.207228 -0.000477063 2.42848 -3.31719 -0.191703 0.0322913 0.223661
339 1 0.229591 0.205086 0.0279916 0.889031 -3.34775 0.299818 0.0955016 -0.197533
338 1 0.234822 0.232682 0.00428258 1.54672 -3.28869 -0.463165 -0.0670954 0.0515743
343 1 0.270429 0.200325 0.0223834 0.523234 -3.34846 -0.186402 0.0044377 -0.0194387
344 1 0.257555 0.228927 0.0296057 1.30953 -3.32206 -0.111931 0.336281 0.0684922
348 1 0.297126 0.227233 0.0239422 0.379643 -3.31738 0.051805 -0.12431 0.295798
1945 1 0.295919 0.202973 0.0469181 0.692114 -3.35604 -0.0451969 -0.210909 -0.0958399
342 1 0.272501 0.22881 0.000923461 1.89729 -3.16159 -0.601155 -0.588415 -0.234825
352 1 0.335126 0.223052 0.0182226 0.288608 -3.33507 -0.16447 -0.200132 -0.178811
1950 1 0.358359 0.223665 0.0427118 0.599467 -3.18418 0.720414 -0.221102 -0.291386
431 1 0.362467 0.246697 0.0200305 6.41491 -3.28544 -0.557816 0.337859 0.047474
356 1 0.373372 0.21671 0.0104539 0.636057 -3.27403 -0.120557 0.0575707 0.475238
1954 1 0.397956 0.217118 0.0353034 0.570131 -3.3003 -0.00233732 0.357303 0.318223
360 1 0.412202 0.211167 0.00478276 7.13031 -3.25256 0.0955471 -0.0221669 -0.198973
435 1 0.399398 0.241547 0.0126723 2.23423 -3.29955 0.0603839 0.257411 0.177871
2033 1 0.383687 0.248875 0.0448044 6.19426 -3.29748 0.217704 0.289229 0.105557
2037 1 0.421761 0.243386 0.0386059 2.97905 -3.30754 0.175604 0.162439 -0.26551
439 1 0.436697 0.235458 0.00555512 8.56829 -3.2737 0.0384364 0.245076 -0.562329
1958 1 0.436093 0.212624 0.0289795 6.77016 -3.27591 0.358001 -0.104447 0.148338
364 1 0.469543 0.212944 0.00675685 1.23739 -3.31004 -0.523331 0.176227 -0.314792
2041 1 0.4609 0.236657 0.0277228 7.61912 -3.289 0.638521 0.533989 0.49749
1962 1 0.491199 0.214906 0.0314167 0.458372 -3.26298 0.474016 -0.125111 0.0108178
443 1 0.493429 0.239998 0.00467196 1.22578 -3.2887 -0.467122 -0.120849 0.211052
2045 1 0.516873 0.23948 0.030382 0.96875 -3.25535 0.118567 0.48799 0.346348
368 1 0.52158 0.218778 0.0088417 1.43227 -3.302 0.202198 -0.811514 0.083469
1966 1 0.546209 0.21979 0.0345587 1.4651 -3.28371 0.370282 -0.148144 -0.0949509
447 1 0.54965 0.242909 0.00900652 1.19629 -3.36133 0.377769 -0.0983896 0.294647
372 1 0.579935 0.219441 0.0141978 0.454503 -3.3248 -0.0280868 0.207911 0.191976
2049 1 0.575956 0.242146 0.0358561 0.616629 -3.29635 -0.0835157 0.295586 -0.293871
1970 1 0.607833 0.221276 0.0365493 1.24701 -3.31708 -0.277968 -0.112726 0.415215
451 1 0.608569 0.24601 0.0158681 1.53294 -3.2859 0.242201 -0.786945 -0.156263
376 1 0.63795 0.220008 0.0169687 0.843207 -3.29084 -0.0389949 0.488481 -0.0441183
2053 1 0.634086 0.244915 0.0400231 0.300417 -3.34484 -0.222937 0.0917671 0.229423
1974 1 0.664186 0.222402 0.0436249 0.967549 -3.24478 -0.559525 0.520814 -0.314346
455 1 0.661568 0.244616 0.0195434 1.34483 -3.28528 0.383006 0.506927 -0.336663
1977 1 0.69211 0.202187 0.0446089 1.14181 -3.26368 0.870606 -0.530968 0.299782
379 1 0.722528 0.201607 0.0235028 0.668117 -3.35054 0.143973 0.576402 0.517004
380 1 0.690426 0.222956 0.0201056 1.93496 -3.30461 1.09609 0.538117 0.254439
2057 1 0.689418 0.247824 0.0424179 0.436271 -3.27595 -0.637382 0.160505 -0.0978888
1978 1 0.717421 0.226834 0.0463444 0.764391 -3.28891 0.522919 -0.843363 -0.495462
459 1 0.719103 0.249595 0.0224556 0.385657 -3.33703 -0.0728728 -0.205434 -0.425349
378 1 0.727497 0.225971 0.000981726 2.19201 -3.29816 -1.0584 -0.0999971 0.376
384 1 0.751168 0.230332 0.0254636 1.83324 -3.33143 0.0706873 -0.818636 -0.115838
381 1 0.754443 0.202395 0.00543623 1.34075 -3.29054 -0.167746 0.164665 -0.346125
383 1 0.779001 0.205746 0.0288851 0.626689 -3.30561 -0.161076 0.00938504 -0.0418803
388 1 0.804508 0.229836 0.0282951 1.2321 -3.26411 0.146351 0.622602 0.594817
382 1 0.778119 0.229278 0.00186745 3.30157 -3.33677 0.487319 -0.0946759 0.457778
385 1 0.810248 0.208443 0.00944784 2.00544 -3.27043 -0.0283995 -0.73107 -0.791521
387 1 0.836836 0.206206 0.0332913 0.674152 -3.30935 0.405895 0.576875 0.0378491
392 1 0.862788 0.23215 0.0352164 0.942954 -3.33859 0.528243 -0.233174 -0.29473
389 1 0.869712 0.208209 0.0112274 0.978398 -3.34433 -0.297329 0.329682 0.573277