ITEM: TIMESTEP
5000
ITEM: NUMBER OF ATOMS
32000
ITEM: BOX BOUNDS pp pp pp
1.8918627743016234e+00 7.9108137225698414e+01
-9.4824833542227083e-01 8.1948248335422306e+01
-9.6555982444660771e-01 8.1965559824446387e+01
ITEM: ATOMS id type xs ys zs c_csym c_peratom fx fy fz
8 1 0.0513076 0.0261268 0.0249246 0.666074 -3.34293 -0.422491 0.0518173 -0.0360563
83 1 0.0250636 0.0496059 0.0252547 0.660184 -3.2932 -0.29461 0.155613 0.365512
1602 1 0.0250543 0.0250952 0.0503217 0.686377 -3.34346 0.170504 0.0883075 -0.168279
1685 1 0.0485978 0.051115 0.0514089 0.53018 -3.32584 0.281661 -0.236933 -0.227847
3 1 0.0229056 0.00374658 0.0242579 1.52008 -3.32186 0.255075 -0.320006 0.0960845
1681 1 0.999351 0.0495094 0.0497895 0.600805 -3.30906 0.097985 0.416875 0.482663
1605 1 0.0498167 0.999609 0.049291 0.945933 -3.30899 0.0521941 0.433847 -0.0598386
1601 1 0.999 0.00116484 0.0492703 0.488861 -3.29688 0.329377 -0.192043 0.505552
1 1 -0.00127504 1.00082 0.999283 0.546474 -3.28459 0.143937 0.363465 0.0326512
85 1 0.0491829 0.0524645 0.00298837 1.92191 -3.29449 0.461303 -0.510141 -0.871116
12 1 0.100251 0.0266162 0.0259755 0.405684 -3.30611 -0.0278779 -0.151348 0.0213822
87 1 0.0759107 0.0497949 0.0260776 0.521134 -3.328 -0.173034 0.196224 -0.150742
1689 1 0.100044 0.0510322 0.0517567 0.480133 -3.36573 0.0335402 -0.273903 -0.111447
1606 1 0.0738108 0.0260803 0.0508277 0.249978 -3.29979 0.0314406 0.32902 -0.0365552
1609 1 0.0977899 0.00341542 0.0502078 1.49603 -3.2884 0.748504 -0.560191 0.14062
6 1 0.0767048 0.0249422 0.998507 1.84381 -3.31699 -0.62693 0.368396 0.544644
16 1 0.149982 0.0248883 0.0256234 0.433149 -3.35522 0.175248 0.310143 -0.0121959
1610 1 0.12482 0.0256831 0.0515498 0.772087 -3.31857 -0.324655 -0.125714 -0.669143
1693 1 0.149874 0.0505603 0.0501151 0.355633 -3.37033 0.215574 0.0710173 -0.144655
91 1 0.125579 0.0497039 0.0249298 0.242175 -3.34722 0.15232 0.184889 0.0250334
11 1 0.125128 1.00033 0.0240232 0.596394 -3.33102 -0.0804007 0.0645228 0.514859
93 1 0.152208 0.0484595 1.00026 0.980569 -3.3625 -0.373107 0.503562 0.149424
20 1 0.200516 0.0236305 0.0246223 0.520504 -3.28359 -0.264293 0.344746 -0.328053
95 1 0.178212 0.0498191 0.0261572 0.965864 -3.36187 -0.516718 -0.0992563 -0.255457
1614 1 0.175695 0.0254752 0.0512639 0.914687 -3.31876 0.143529 0.114173 -0.419522
1697 1 0.201539 0.0492781 0.0509943 0.5327 -3.28607 -0.261091 0.416963 -0.0651747
24 1 0.250943 0.0237428 0.0246938 0.423058 -3.33021 -0.512632 0.302946 -0.441618
99 1 0.225571 0.0487576 0.024756 0.585319 -3.2999 -0.0180978 0.215587 -0.163544
1618 1 0.223836 0.025148 0.0486628 0.798242 -3.2827 0.689913 -0.3381 0.431234
1701 1 0.250011 0.0496622 0.0487499 0.3166 -3.36129 0.219243 -0.0513502 0.33243
103 1 0.274622 0.0493898 0.0244389 0.270563 -3.27806 -0.0296153 -0.0121789 0.251897
1622 1 0.275224 0.0228237 0.0481707 0.784442 -3.29598 -0.0993119 0.426244 0.443633
1621 1 0.248322 -4.10813e-05 0.0490339 0.536216 -3.34363 0.0860042 -0.0134049 0.443843
101 1 0.250504 0.0509254 0.999507 0.700884 -3.31283 -0.798435 -0.580812 0.0896768
22 1 0.275715 0.0250557 -0.000795938 0.376106 -3.3366 -0.279896 -0.278932 0.126052
28 1 0.30014 0.0254629 0.0249201 0.591818 -3.29263 -0.060867 -0.435318 -0.0983871
1705 1 0.299574 0.0485701 0.0499241 0.255516 -3.35181 0.302739 0.143269 0.0173941
107 1 0.324244 0.0492554 0.0236505 0.654176 -3.30886 0.499466 -0.215049 0.27146
1626 1 0.324482 0.0232778 0.0502212 0.412942 -3.34461 0.110607 0.395042 0.212751
27 1 0.325989 -0.00104428 0.0257197 0.308936 -3.33853 -0.142863 -0.191511 -0.0936489
32 1 0.350969 0.0232272 0.0275419 1.18124 -3.29902 -0.31935 0.232219 -0.672616
1709 1 0.349038 0.049582 0.0505141 0.237505 -3.34793 0.094571 -0.0310097 0.0751146
111 1 0.373674 0.0489054 0.0256597 0.169396 -3.29904 0.130173 0.187091 -0.0337268
1630 1 0.37444 0.02422 0.0509614 0.163454 -3.31271 0.134888 0.0861992 0.10924
109 1 0.350238 0.0483183 1.00011 0.316706 -3.335 -0.0792667 0.00340909 0.0238225
30 1 0.374863 0.0225794 0.000665126 0.589374 -3.27462 -0.216509 0.642264 -0.109914
36 1 0.398378 0.0254518 0.0238316 0.853739 -3.29004 -0.0108921 -0.262317 0.632181
1713 1 0.397146 0.0498122 0.0513108 0.757377 -3.35566 0.190495 0.382239 -0.401916
113 1 0.398743 0.0500273 0.999769 0.315045 -3.31711 0.0952238 -0.047497 0.0763528
1634 1 0.422504 0.0253856 0.0484153 1.06354 -3.33295 0.112364 0.160372 0.420586
115 1 0.424441 0.04972 0.0237347 0.470851 -3.36176 -0.0705496 0.33745 0.528427
33 1 0.399143 -0.000871055 0.00171531 0.605928 -3.28784 0.711748 -0.22603 -0.311973
40 1 0.450442 0.0262211 0.0263879 1.14318 -3.26758 -0.313261 -0.527037 -0.626771
1717 1 0.450169 0.0489634 0.0496049 0.483023 -3.33391 -0.350162 0.562392 0.30677
1638 1 0.475342 0.0253548 0.0488731 0.268027 -3.24746 0.0924372 -0.275188 0.139724
44 1 0.499248 0.0235599 0.0245577 0.576115 -3.34942 0.148164 0.346031 -0.382351
119 1 0.474119 0.0506287 0.0253025 0.395822 -3.32908 0.375309 -0.191001 -0.226471
1637 1 0.448636 0.00190278 0.0494525 1.01276 -3.33438 0.24111 -0.427899 0.0203944
39 1 0.475236 -0.00198149 0.0248842 0.845701 -3.31643 -0.0209165 0.684403 0.302283
37 1 0.449898 -0.00108517 1.0005 0.266804 -3.38937 -0.180613 0.0414315 -0.0304712
117 1 0.448974 0.0486446 0.998864 0.911321 -3.28107 -0.112077 0.0426665 0.383771
123 1 0.523275 0.050983 0.0260017 0.744725 -3.33521 0.163685 -0.519946 -0.334413
1721 1 0.499872 0.0492109 0.049911 0.24021 -3.32821 0.143165 0.267336 0.125482
1642 1 0.523956 0.0239284 0.0495648 0.646167 -3.33406 0.601732 0.433242 -0.0672315
48 1 0.550777 0.0267081 0.0251288 0.682138 -3.3576 -0.541488 -0.198511 -0.167706
1725 1 0.550552 0.0498362 0.050658 0.254111 -3.30479 -0.344267 0.0907681 -0.531197
42 1 0.525795 0.0256838 -0.00128457 0.365377 -3.36014 0.0307167 -0.240748 0.389384
127 1 0.57492 0.0509682 0.0260681 0.653848 -3.34408 0.118832 -0.0382165 -0.368098
1646 1 0.575019 0.0241426 0.0495177 0.58063 -3.27774 -0.0688682 0.279781 -0.254271
47 1 0.572983 0.00112478 0.0247331 1.18516 -3.3309 0.257003 -0.124502 -0.339379
52 1 0.599632 0.025524 0.0225214 0.929086 -3.27854 -0.297508 0.21985 0.850947
1729 1 0.599868 0.0490601 0.0501546 0.622279 -3.29131 0.219501 0.222684 -0.362371
1649 1 0.600529 1.00134 0.0478551 0.300427 -3.33215 0.204056 -0.108743 0.139693
131 1 0.623951 0.04932 0.0250869 0.635403 -3.31195 0.617241 0.00572694 -0.188954
1650 1 0.626099 0.0258713 0.0486273 0.251465 -3.32342 -0.115583 -0.504647 -0.00299249
51 1 0.625534 1.00138 0.0233484 0.268874 -3.30169 0.240585 -0.349652 0.438115
56 1 0.651097 0.0247784 0.0247032 0.399357 -3.28137 -0.217588 0.518985 -0.132488
1653 1 0.65241 0.0013644 0.0475185 1.45452 -3.30048 -0.888186 -0.766726 0.419144
1733 1 0.649556 0.0492915 0.0502149 0.159282 -3.34638 0.0997491 0.278339 -0.0619255
135 1 0.674361 0.0499663 0.0267587 0.570291 -3.31539 -0.119243 -0.316672 -0.49557
1654 1 0.67516 0.024378 0.051479 0.926565 -3.25546 0.319705 0.701412 -0.711007
55 1 0.675381 1.00175 0.0234428 0.902759 -3.29322 0.332133 -0.418499 -0.107813
54 1 0.674305 0.0255441 -0.000464033 0.454524 -3.38126 0.399565 -0.0429283 -0.140996
60 1 0.700881 0.0257345 0.0243045 0.551309 -3.33545 -0.257008 -0.176582 0.350667
1737 1 0.700103 0.0511315 0.0500098 0.800134 -3.35299 0.0712763 -0.452508 0.553484
139 1 0.725842 0.0482911 0.0272741 1.43717 -3.31524 -0.0221285 0.521143 -0.201251
1658 1 0.725916 0.0227563 0.052028 1.51072 -3.28905 -0.33231 0.433286 -0.845403
58 1 0.725695 0.0260562 1.00083 0.547407 -3.30006 -0.202266 -0.174704 -0.176799
64 1 0.750366 0.0252482 0.0261615 0.244494 -3.39544 0.300441 -0.194128 0.129512
143 1 0.776165 0.0514819 0.0243925 0.699038 -3.32529 -0.34204 -0.477119 0.495422
1662 1 0.776217 0.0252833 0.0521342 0.621746 -3.30493 -0.216108 -0.154383 -0.375502
1741 1 0.752157 0.0505823 0.0515358 0.719052 -3.33628 0.0883808 0.010349 -0.440366
62 1 0.77504 0.0253325 1.00036 0.153062 -3.3404 0.171065 -0.276451 0.319814
141 1 0.749527 0.0505973 1.00016 0.365432 -3.2936 -0.0110228 -0.0847129 0.193835
61 1 0.74931 1.00065 1.00126 0.715615 -3.36426 0.328992 -0.160993 -0.381371
68 1 0.80006 0.0257153 0.0263411 0.470003 -3.35818 0.0644088 -0.223303 -0.257146
147 1 0.824848 0.0496883 0.0254435 0.23264 -3.2804 0.121035 -0.345106 -0.20713
1666 1 0.826175 0.0239398 0.0517184 0.933062 -3.3226 -0.140922 0.262178 -0.484899
1745 1 0.800251 0.0488878 0.0506431 0.884045 -3.32415 0.25442 0.487128 0.0140895
145 1 0.799646 0.0489315 0.999386 0.265411 -3.24959 0.291742 -0.0795923 0.167001
63 1 0.776412 0.000125223 0.0249157 0.238506 -3.33485 -0.133898 0.430098 -0.184936
66 1 0.824811 0.0247614 2.92617e-05 0.143629 -3.3599 0.163263 0.239316 -0.21792
72 1 0.849518 0.0249157 0.024782 0.279712 -3.29513 0.311995 0.306016 0.0214684
151 1 0.874026 0.0504409 0.0237403 0.495833 -3.35506 0.473671 -0.199633 0.337054
1670 1 0.874809 0.02475 0.0504221 0.218438 -3.3749 0.114569 0.101683 -0.028766
1749 1 0.84969 0.0485184 0.0488796 0.913364 -3.3348 0.259327 0.407083 0.404975
149 1 0.850576 0.0490582 0.99909 0.42989 -3.36869 -0.196793 -0.0309178 -0.112308
70 1 0.877051 0.024075 0.998648 1.1354 -3.3388 -0.0499195 0.543163 0.537154
75 1 0.92287 0.000225536 0.0239658 0.624271 -3.19931 0.374913 -0.0672266 0.318048
76 1 0.900681 0.026337 0.0274963 1.49275 -3.36089 -0.33601 0.204605 -0.725248
155 1 0.925452 0.052127 0.0248493 1.02359 -3.30037 -0.358945 -0.807877 0.334238
1674 1 0.923145 0.0257039 0.0518709 1.05303 -3.25423 0.531261 -0.169114 -0.793124
1753 1 0.899918 0.0520822 0.0513804 0.842381 -3.2911 -0.349665 -0.43436 -0.975158
4 1 -0.00183057 0.0265335 0.0279651 1.61952 -3.23169 0.224864 -0.150375 -0.812002
80 1 0.948971 0.0228066 0.0242919 1.38802 -3.31754 -0.137132 0.812072 0.0529372
159 1 0.973085 0.0487689 0.026058 0.804811 -3.29199 0.135003 0.26624 -0.277109
1678 1 0.972242 0.0258324 0.0517433 1.57328 -3.2723 0.450119 -0.631882 -0.435316
1757 1 0.949292 0.0491897 0.0502459 0.331082 -3.27958 -0.282655 0.298374 -0.0817357
1677 1 0.947462 0.000113438 0.0470991 1.76385 -3.31727 0.386233 0.0886998 0.903759
79 1 0.975758 0.00155245 0.0259631 1.15517 -3.26951 -0.46395 -0.20286 -0.333453
163 1 0.0264647 0.0993841 0.0254149 0.673569 -3.29637 -0.120179 0.470251 0.290936
1682 1 0.0249571 0.0743539 0.0505512 0.411126 -3.27007 0.0998317 0.0509518 0.299511
88 1 0.0507245 0.0745302 0.0267999 0.565426 -3.27034 -0.139552 0.152146 0.00491727
1765 1 0.0468046 0.100099 0.051855 2.26824 -3.28548 0.897067 0.205523 -0.575434
84 1 0.00132248 0.0746245 0.0277354 0.858884 -3.31659 -0.485309 0.0154571 -0.724245
165 1 0.0521491 0.0994287 1.00147 0.862273 -3.29071 -0.416198 0.525122 -0.456033
92 1 0.100621 0.0734807 0.0263042 0.704594 -3.32566 -0.354448 0.314565 -0.467642
167 1 0.074658 0.0991076 0.0261301 0.457994 -3.34582 0.390718 0.254842 0.305369
1686 1 0.0745783 0.0752052 0.0506478 0.201151 -3.33649 0.14113 0.0326988 -0.085027
1769 1 0.101455 0.0998273 0.0506875 0.616616 -3.33917 -0.208058 -0.035556 -0.355436
86 1 0.0742036 0.0752516 1.0007 0.424238 -3.29525 0.255693 -0.157612 0.240546
96 1 0.15311 0.0745782 0.0240972 0.903921 -3.34568 -0.345699 -0.31307 -0.091571
171 1 0.124895 0.0984111 0.0228887 0.790791 -3.27101 0.150396 0.425142 0.25723
1690 1 0.125412 0.0755991 0.048383 0.407005 -3.28128 0.0631544 -0.278101 0.37796
1773 1 0.148747 0.0998691 0.0461515 1.63668 -3.28054 0.434446 0.259874 0.613007
100 1 0.202113 0.0741784 0.0248431 0.634621 -3.34847 -0.387487 0.284406 0.115008
175 1 0.17566 0.0997344 0.023558 0.176326 -3.34052 0.209366 0.015156 -0.0142369
1777 1 0.200705 0.0996623 0.0497827 0.157788 -3.3012 0.218295 -0.0322809 -0.247699
1694 1 0.175972 0.0762127 0.0500857 0.558524 -3.31034 -0.0246091 -0.485879 -0.322291
179 1 0.226043 0.100226 0.0254282 0.377117 -3.28587 -0.470731 -0.014005 -0.481054
104 1 0.249961 0.0744962 0.0252087 0.321513 -3.35914 -0.117556 0.126389 -0.0758405
1698 1 0.225518 0.0755684 0.050779 0.453898 -3.32947 -0.0294195 -0.319269 0.0970144
1781 1 0.248729 0.100243 0.049518 0.914332 -3.30399 0.898403 -0.0365154 0.430598
181 1 0.252311 0.100016 9.55613e-06 1.44079 -3.36099 -0.235586 0.0620267 -0.0700162
183 1 0.276208 0.0985376 0.0258897 1.23153 -3.23577 -0.690163 0.389297 -0.675211
1702 1 0.27668 0.0756629 0.0491701 0.897621 -3.29711 -0.553256 -0.378923 0.282313
102 1 0.274252 0.0731133 0.999875 0.498998 -3.29042 0.628109 0.703728 -0.0951503
108 1 0.300646 0.0728061 0.0259396 1.29247 -3.28624 -0.0446095 0.557827 -0.590826
1785 1 0.299269 0.101497 0.0475589 2.01332 -3.2355 0.862808 -0.0413089 0.87203
187 1 0.325213 0.100617 0.024888 0.416091 -3.31899 -0.384086 -0.339971 -0.335944
1706 1 0.324975 0.0758277 0.0494733 0.617329 -3.34525 -0.175541 -0.359207 0.413817
185 1 0.297658 0.101757 4.901e-05 1.43043 -3.35925 0.334278 -0.565903 -0.034966
106 1 0.324214 0.0746751 -0.00104702 0.324948 -3.36906 -0.00712153 0.194196 0.243669
112 1 0.349682 0.0733232 0.0250709 0.474396 -3.34149 -0.0746195 0.458041 -0.122933
1789 1 0.347649 0.100237 0.0509669 0.5268 -3.23426 -0.107869 -0.102863 -0.0076908
191 1 0.375118 0.0996549 0.027156 1.29578 -3.3007 -0.390953 -0.170369 -0.898713
1710 1 0.371873 0.0763421 0.0523017 1.86745 -3.29864 0.487634 -0.67501 -0.451372
116 1 0.398412 0.0748352 0.025722 0.287596 -3.34199 -0.0315564 -0.325769 -0.150511
1793 1 0.400417 0.0982 0.0497532 0.980528 -3.29735 -0.224543 0.436703 0.380331
195 1 0.424362 0.100006 0.0257973 0.304966 -3.35197 0.235396 0.300547 -0.435102
1714 1 0.42505 0.0747232 0.0491499 0.355974 -3.31481 -0.09392 -0.343994 0.0230437
114 1 0.424786 0.0752052 1.00139 0.543306 -3.33061 -0.107187 0.0334563 -0.107625
120 1 0.450934 0.0755825 0.0256335 0.702152 -3.31049 -0.110368 -0.00198527 -0.258492
1797 1 0.451154 0.0994584 0.0491681 0.760246 -3.33927 -0.138273 0.483803 0.177786
197 1 0.450993 0.100031 9.21847e-06 0.42135 -3.3657 -0.170851 0.20615 0.0711758
199 1 0.475285 0.103665 0.0237273 2.60969 -3.29107 0.126052 -0.869958 0.0745442
1718 1 0.475059 0.0755706 0.0505469 0.480124 -3.27986 -0.0538946 -0.245536 0.178644
1801 1 0.500622 0.0985969 0.0483448 1.22887 -3.31976 -0.199129 0.872467 0.514388
201 1 0.500085 0.0993973 0.999159 0.468213 -3.33532 -0.611955 0.258444 0.224127
124 1 0.498369 0.0749699 0.0263503 1.02578 -3.28746 0.0281121 0.0599143 -0.718136
1722 1 0.525691 0.0758006 0.0498558 0.537836 -3.2805 0.239008 -0.262735 -0.104379
203 1 0.525589 0.099293 0.0248811 0.320706 -3.32138 0.0113973 0.256542 0.166915
128 1 0.548368 0.0735499 0.0244617 1.2572 -3.30866 0.638395 0.423081 0.332385
1805 1 0.553792 0.0994461 0.0506561 2.1684 -3.3497 -0.725734 0.0401267 0.109137
207 1 0.574205 0.100212 0.0250043 0.599301 -3.3494 0.291453 -0.221674 -0.376901
1726 1 0.577767 0.0750349 0.0500587 1.25248 -3.33421 -0.564435 -0.0887567 -0.179144
132 1 0.601687 0.0736066 0.0238469 1.33645 -3.26746 -0.699661 0.531935 0.271939
1809 1 0.598552 0.101249 0.0511626 1.66875 -3.32543 0.215713 -0.169847 -0.419337
211 1 0.625241 0.0994576 0.0256778 0.31315 -3.33228 0.00341747 0.259055 0.076227
1730 1 0.62524 0.0749306 0.0479885 0.98273 -3.34581 -0.140036 -0.100989 0.618788
130 1 0.626407 0.0761999 0.000869251 0.958993 -3.22804 -0.512979 -0.601862 -0.709051
136 1 0.649838 0.0750852 0.0241309 0.429168 -3.2836 0.296687 -0.25891 0.518576
1813 1 0.649854 0.0994996 0.0523683 1.13713 -3.31684 0.193966 0.0321138 -0.822495
213 1 0.650497 0.098337 0.000493572 0.491472 -3.23849 -0.0417746 0.604727 0.0919344
215 1 0.675511 0.0994108 0.0263028 0.446863 -3.31504 -0.417039 -0.0855605 -0.0815494
1734 1 0.673571 0.0746074 0.0502498 0.462915 -3.31015 -0.154699 -0.187219 0.349338
140 1 0.697419 0.0736824 0.0270551 1.81088 -3.22613 0.927087 0.188137 -0.871261
1817 1 0.700886 0.0965573 0.050471 1.17377 -3.27392 0.0796551 0.625157 0.00645634
217 1 0.699864 0.100484 1.0005 0.392333 -3.33981 -0.0823763 0.0225839 -0.0404896
219 1 0.724619 0.0986766 0.0234374 1.0331 -3.34744 0.342634 0.251124 0.411051
1738 1 0.72719 0.0756584 0.0488134 1.28189 -3.33341 -0.14777 -0.346519 0.239606
144 1 0.750183 0.0748505 0.0237214 0.496189 -3.32167 0.138454 0.050552 0.317272
223 1 0.774138 0.0998532 0.0233904 0.921441 -3.32622 0.346632 -0.264646 0.282705
1742 1 0.77772 0.0758389 0.0502098 0.683813 -3.33325 -0.365604 -0.0742265 -0.315292
1821 1 0.752358 0.101227 0.0509886 1.0891 -3.32337 0.112644 -0.127339 -0.482447
221 1 0.751401 0.099726 0.997701 1.03401 -3.26341 -0.229623 -0.115982 0.694007
142 1 0.77649 0.0739082 1.00037 0.882441 -3.32796 -0.204747 0.583966 -0.42399
148 1 0.802098 0.0736467 0.0234379 1.0768 -3.2523 -0.431507 0.556338 0.434775
225 1 0.801064 0.10002 0.999451 0.624463 -3.35355 -0.425121 -0.22619 0.104002
227 1 0.824728 0.0999083 0.0255895 0.258153 -3.33055 0.0234937 0.317701 -0.210544
1746 1 0.825708 0.0749092 0.0490839 0.480897 -3.32574 -0.200871 0.0205108 0.382923
1825 1 0.798981 0.101711 0.0490583 1.1897 -3.32371 0.275469 -0.321687 0.481068
146 1 0.824343 0.0738721 0.998992 0.338658 -3.31139 0.155242 0.0819231 -0.114488
152 1 0.848868 0.0741208 0.0242896 0.37102 -3.30822 0.176912 0.264286 -0.132047
231 1 0.873752 0.0994284 0.0275878 1.17919 -3.33569 0.172819 0.0913286 -0.684707
1750 1 0.872738 0.0756758 0.0505472 0.934172 -3.33617 0.254787 -0.457735 -0.125011
1829 1 0.848134 0.100779 0.0502282 0.639532 -3.31388 0.225989 0.104576 0.236595
150 1 0.875431 0.0757093 1.0002 0.33921 -3.32822 -0.331975 0.143574 0.120613
229 1 0.849418 0.100888 1.00054 0.476544 -3.36926 0.128285 -0.194495 0.0514596
156 1 0.90062 0.075118 0.0250095 0.259745 -3.3519 -0.36159 0.231148 0.287851
235 1 0.926904 0.0989111 0.0258139 0.735831 -3.34386 -0.492777 0.129535 -0.0386675
1754 1 0.926073 0.0766067 0.0509903 0.813266 -3.2901 -0.163428 -0.400552 -0.377772
1833 1 0.899408 0.0992847 0.0511267 0.45817 -3.33598 0.297604 0.130778 -0.186192
233 1 0.901116 0.0987424 0.999187 0.585281 -3.27429 -0.00903134 0.358396 0.475084
1761 1 1.00201 0.0988864 0.0512973 0.784532 -3.35448 -0.405805 0.512135 -0.268197
160 1 0.950363 0.0737484 0.0272005 1.09588 -3.25008 0.0390725 0.529902 -0.597872
239 1 0.975891 0.0998731 0.0257393 0.258629 -3.36725 -0.0306852 0.364163 0.412256
1758 1 0.974218 0.0746197 0.0501509 0.29657 -3.34873 0.364435 0.0129869 0.289267
1837 1 0.951014 0.100663 0.0509469 0.389344 -3.30099 0.347275 -0.0160182 -0.413111
237 1 0.949558 0.0997142 1.00125 0.25169 -3.33753 -0.132699 0.14493 -0.114009
168 1 0.0519085 0.124617 0.02736 1.33392 -3.34888 -0.0284847 -0.135759 -0.417505
243 1 0.0278384 0.147923 0.0267982 1.83425 -3.2936 -0.317306 0.470204 -0.594475
1762 1 0.0248457 0.126727 0.0503862 1.0652 -3.28806 0.299412 -0.306283 0.406238
1845 1 0.0534927 0.150515 0.050849 1.52607 -3.35653 -0.499952 -0.226446 -0.137279
164 1 1.00131 0.12545 0.02625 0.372535 -3.34119 -0.234209 -0.179474 -0.30046
172 1 0.0997163 0.124933 0.0249224 0.428759 -3.30986 0.0311355 -0.344294 -0.279456
247 1 0.076692 0.148875 0.0231251 0.906706 -3.34123 -0.226242 0.440292 0.176906
1766 1 0.0770351 0.125333 0.0515733 1.26813 -3.27122 -0.703408 -0.357015 -0.270631
1849 1 0.0989939 0.149617 0.0500405 0.642413 -3.32792 0.363129 0.435408 0.0886299
176 1 0.149845 0.124565 0.0232881 0.127848 -3.36322 0.0287502 0.296012 0.0272161
251 1 0.123581 0.14972 0.0229818 0.790659 -3.31679 0.621307 -0.37179 0.216159
1853 1 0.150471 0.14971 0.0493216 0.218558 -3.38084 0.0491379 -0.0889136 -0.106474
1770 1 0.124676 0.124923 0.0482138 0.235469 -3.33589 0.126031 0.196347 0.231566
180 1 0.199738 0.124745 0.0237011 0.232303 -3.37399 0.253571 0.0452928 -0.180981
255 1 0.176287 0.150775 0.0243078 0.462368 -3.34771 -0.294227 -0.235014 -0.176453
1774 1 0.17616 0.124151 0.0482238 0.452186 -3.35427 -0.333535 0.287488 0.256667
1857 1 0.200155 0.150977 0.0486066 0.717259 -3.30304 -0.0301218 -0.563775 0.662744
257 1 0.199943 0.149419 0.997596 1.05493 -3.30726 0.323147 -0.0823105 0.836018
184 1 0.249105 0.124806 0.0254317 0.563396 -3.34048 0.48199 0.286096 -0.00445901
259 1 0.225775 0.149658 0.0255329 0.273186 -3.28625 -0.321673 -0.126146 -0.196381
1861 1 0.249193 0.151702 0.0521069 0.807502 -3.30391 0.382654 -0.696872 -0.36245
263 1 0.27726 0.152176 0.0245058 1.45805 -3.31424 -0.42212 0.0409892 0.428574
1782 1 0.274983 0.12545 0.0505713 0.450019 -3.38291 -0.310626 0.270761 -0.0715355
1778 1 0.22493 0.125018 0.0505903 0.205394 -3.30888 -0.0221075 0.286932 -0.161053
261 1 0.250374 0.152174 1.00235 1.83457 -3.30523 -0.0686778 -0.246434 -0.396555
182 1 0.273955 0.12615 1.00092 0.802143 -3.28668 -0.122874 -0.0536554 -0.0377347
188 1 0.299585 0.127627 0.0259725 1.05754 -3.27707 -0.0438522 -0.726973 -0.0640348
1865 1 0.300372 0.152244 0.0511285 0.426723 -3.35617 -0.219334 -0.225159 0.0280183
267 1 0.323772 0.150347 0.0249877 0.318764 -3.32036 0.38983 0.434782 0.00345982
1786 1 0.325561 0.126413 0.0497481 0.644758 -3.34654 -0.249322 -0.107796 0.311591
265 1 0.30072 0.148592 -0.000694976 1.52854 -3.23876 -0.29161 0.413866 -0.0508263
192 1 0.348555 0.124566 0.0242457 0.380193 -3.29331 0.318204 0.165638 -0.0369535
1869 1 0.350038 0.152094 0.0512668 1.45498 -3.28949 -0.131701 -0.505421 -0.480586
269 1 0.348643 0.15052 0.998515 0.374209 -3.33138 0.000266444 0.0526676 0.369831
271 1 0.37194 0.14962 0.0250052 1.117 -3.33842 0.230459 -0.0680428 -0.00125049
1790 1 0.371736 0.12241 0.0494362 1.90245 -3.2841 0.64263 0.919893 0.239746
196 1 0.399727 0.125506 0.0252708 0.363502 -3.37234 -0.0666689 -0.195862 -0.000778425
1873 1 0.398852 0.149419 0.0494727 0.424575 -3.3352 -0.147299 -0.246069 0.162656
273 1 0.400118 0.150413 1.00196 1.22969 -3.27105 -0.0110514 -0.465179 -0.647009
275 1 0.425133 0.150937 0.0258759 0.372782 -3.27398 0.0307037 -0.268346 -0.644164
1794 1 0.424881 0.125393 0.051057 0.456375 -3.30229 -0.0859703 -0.138531 -0.642806
200 1 0.451121 0.126765 0.0262231 0.67423 -3.32078 -0.596373 -0.023587 -0.46306
1877 1 0.448547 0.151232 0.0491694 0.833737 -3.31212 0.782271 0.141806 0.0684451
279 1 0.476206 0.152259 0.0225907 1.06545 -3.29567 0.0972233 -0.39367 0.708717
204 1 0.501416 0.125532 0.0250304 0.400353 -3.2834 -0.021157 -0.117891 -0.393028
1798 1 0.476038 0.125884 0.0489756 0.257697 -3.33521 0.0567978 0.0593418 0.228407
277 1 0.450983 0.152181 0.999804 0.502375 -3.27643 -0.776241 -0.35431 0.390934
283 1 0.525899 0.148859 0.0248897 0.363083 -3.32363 0.2703 0.382898 -0.611474
1881 1 0.501985 0.14962 0.0482953 0.832712 -3.31284 -0.478568 0.528721 0.202707
1802 1 0.525789 0.1246 0.05008 0.361982 -3.28272 0.218238 -0.462479 -0.14214
208 1 0.549372 0.123876 0.0244044 0.586269 -3.32234 0.141382 0.212267 -0.0941799
1885 1 0.548736 0.149638 0.0508888 0.475766 -3.31469 0.173642 0.0745039 -0.00057416
281 1 0.499941 0.150292 -0.00194135 0.634884 -3.33 0.531877 0.0965097 0.273851
202 1 0.525749 0.124039 -0.00130601 0.197909 -3.3625 -0.25901 0.256761 0.057295
287 1 0.573465 0.150514 0.0265118 1.07128 -3.33692 0.410618 -0.299474 -0.577958
1806 1 0.574817 0.125999 0.0488549 0.798184 -3.31541 0.0473978 0.0324776 0.404441
212 1 0.601292 0.123996 0.023967 1.0699 -3.33103 -0.280003 0.398602 0.241024
1889 1 0.599189 0.151281 0.0506393 0.639396 -3.31653 0.375608 -0.193269 -0.282182
291 1 0.625152 0.149889 0.0258707 0.51467 -3.36429 -0.0159932 0.0112823 -0.0807452
1810 1 0.62447 0.125471 0.0496739 0.434493 -3.33486 0.0715056 -0.0366598 0.0826061
210 1 0.626475 0.124517 0.999723 0.471662 -3.3197 -0.253207 0.00303826 0.136342
216 1 0.649756 0.124417 0.0258952 0.398759 -3.33731 -0.0392414 -0.00111078 0.269685
1893 1 0.652841 0.147721 0.0512093 1.5275 -3.29679 -0.708925 0.264381 -0.700844
293 1 0.649065 0.151197 0.000816034 0.608397 -3.30791 0.294542 -0.178565 0.146495
214 1 0.672544 0.123965 0.00216039 1.33063 -3.3097 0.616624 0.257056 -0.426244
295 1 0.676662 0.149419 0.0247009 0.465648 -3.35458 -0.236184 0.188129 0.015223
1814 1 0.677246 0.12327 0.0509861 0.581467 -3.30715 -0.497493 -0.0896242 0.179877
220 1 0.699338 0.122807 0.0268692 1.21809 -3.30009 0.717681 0.449308 -0.517603
1897 1 0.700559 0.148869 0.0502198 0.25092 -3.31109 0.0408714 -0.066973 -0.183846
297 1 0.698401 0.149816 -0.00195398 1.42675 -3.28217 0.539848 0.00171188 0.89285
299 1 0.726207 0.149219 0.0238045 0.694545 -3.32762 -0.531005 0.091664 0.160961
1818 1 0.727119 0.124399 0.0498687 0.759632 -3.32094 -0.553448 -0.126225 -0.238356
218 1 0.726274 0.12608 1.00078 0.959708 -3.35084 -0.325787 -0.413466 -0.325165
224 1 0.751134 0.124704 0.0236754 0.468236 -3.27841 -0.236777 0.126265 0.655203
303 1 0.775707 0.15155 0.0255949 0.624162 -3.36072 -0.297421 0.0061654 -0.392157
1822 1 0.776252 0.12719 0.0502563 0.862784 -3.26129 -0.461473 -0.214566 0.559477
1901 1 0.749903 0.149866 0.0507681 0.28561 -3.32872 0.163051 0.0679248 0.00211482
222 1 0.773213 0.125517 0.000205737 0.870224 -3.24659 0.694406 0.0841927 -0.0882046
301 1 0.751219 0.151719 0.997917 1.19504 -3.29947 -0.0665866 0.0593445 0.640988
228 1 0.797955 0.125029 0.0260571 0.845034 -3.30429 0.643081 0.213091 -0.693158
307 1 0.823703 0.151346 0.0259575 0.737636 -3.31659 0.0255402 -0.639719 -0.235066
1826 1 0.824902 0.126168 0.0508597 0.226654 -3.34469 -0.180486 -0.00527522 -0.159908
226 1 0.824055 0.124675 0.999947 0.260696 -3.31858 0.235004 -0.0463642 0.432862
305 1 0.800576 0.150573 -0.000202568 0.247154 -3.35508 -0.223142 0.199992 0.300462
232 1 0.849993 0.126622 0.0259835 0.888706 -3.34258 -0.227564 -0.418587 -0.537437
311 1 0.875834 0.149135 0.024241 0.4691 -3.32904 -0.198024 0.0906635 -0.0876158
1830 1 0.875266 0.125363 0.0501825 0.131003 -3.32017 0.0107737 -0.22941 0.226729
1909 1 0.851257 0.149753 0.0490022 0.641877 -3.28393 -0.41208 0.310094 0.243249
309 1 0.846462 0.149456 0.998204 2.23915 -3.24857 1.19769 -0.116612 0.856749
230 1 0.877185 0.123206 0.00100789 1.64997 -3.32868 -0.569788 0.30429 0.0627044
236 1 0.900994 0.122638 0.0262727 1.00374 -3.36982 0.0317328 0.227059 -0.128623
315 1 0.924504 0.150437 0.0242089 0.657675 -3.3143 -0.248202 -0.362071 0.366735
1834 1 0.926144 0.125851 0.0500728 0.680483 -3.29944 -0.479995 -0.575794 0.0184202
1913 1 0.900324 0.149389 0.0502862 0.349006 -3.31247 0.0160902 0.038719 -0.348488
234 1 0.923967 0.124797 0.999735 0.333913 -3.34068 -0.0304247 -0.278432 0.122992
313 1 0.898938 0.149357 1 0.46904 -3.32054 0.10273 0.127867 -0.20669
1841 1 -0.000635978 0.150197 0.0510206 0.730205 -3.27555 0.580584 0.0752848 -0.42443
240 1 0.949547 0.124409 0.0256886 0.214826 -3.33053 0.148833 0.0220238 -0.21516
319 1 0.973499 0.150277 0.0248113 0.994546 -3.33605 0.713773 -0.187479 -0.0155562
1838 1 0.976525 0.126014 0.0494051 0.74858 -3.33698 -0.203641 -0.621374 0.218113
1917 1 0.950288 0.148542 0.0501855 0.644464 -3.29188 0.0671011 0.510832 -0.00839626
241 1 1.00141 0.148972 1.00117 0.410186 -3.34887 -0.29621 -0.0357998 0.0536405
238 1 0.975173 0.125521 0.0010264 0.270724 -3.34493 0.0131712 -0.190592 0.107644
317 1 0.948676 0.148448 0.0011751 0.650916 -3.30788 0.453816 0.324405 -0.513678
248 1 0.0496108 0.174282 0.0229036 0.534064 -3.31106 0.321747 -0.0147241 0.166604
323 1 0.0250665 0.200275 0.0228033 0.904966 -3.27995 0.0484134 -0.413111 0.599107
1842 1 0.0263649 0.174706 0.0473029 1.57517 -3.31802 0.0467562 0.110856 0.882578
244 1 1.00186 0.173434 0.025954 1.06555 -3.33892 -0.461527 0.0240514 -0.457973
1925 1 0.0511404 0.199366 0.0495845 0.474738 -3.32525 -0.359134 0.27988 -0.155102
325 1 0.0490746 0.201022 0.998996 0.57272 -3.30762 0.0621128 -0.213772 -0.0852567
242 1 0.0248864 0.17336 -0.000312834 0.429657 -3.27616 0.0483464 0.430676 0.0912175
252 1 0.102732 0.17435 0.0244711 1.38341 -3.28204 -0.866083 0.206911 -0.176947
327 1 0.0730433 0.19944 0.0225939 1.3757 -3.31381 0.727601 -0.321267 0.329139
1846 1 0.0759731 0.175246 0.0477858 0.773038 -3.30934 -0.0616206 -0.0817451 -0.0556425
1929 1 0.0996514 0.199167 0.0494363 0.291248 -3.33545 -0.0243144 0.372039 -0.0702417
256 1 0.14941 0.174061 0.0239111 0.855376 -3.31512 0.354115 -0.0349125 0.397926
331 1 0.124249 0.199445 0.0258079 0.482043 -3.31219 0.420315 0.436838 -0.288436
1850 1 0.126076 0.174681 0.0495021 0.328841 -3.32515 -0.0555497 -0.0775001 0.202835
1933 1 0.151077 0.200724 0.0500403 0.376946 -3.36726 -0.176354 -0.095514 0.109125
260 1 0.202556 0.174733 0.026087 0.834672 -3.31097 -0.177292 0.445963 -0.35761
335 1 0.175651 0.199796 0.0256113 0.346619 -3.30633 0.211165 0.0232793 0.107263
1854 1 0.175588 0.175541 0.0498955 0.155707 -3.3517 -0.200814 -0.0236102 -0.0162483
1937 1 0.200936 0.201731 0.0502312 0.718128 -3.30874 0.0540159 -0.630764 0.197097
337 1 0.202482 0.200651 0.999626 0.770945 -3.28839 -0.344488 0.142249 0.74978
254 1 0.177617 0.176444 1.00091 0.950608 -3.32532 -0.144777 -0.421227 -0.111866
264 1 0.249105 0.174551 0.0269061 1.12074 -3.27285 0.0808374 0.160627 -0.281183
339 1 0.227609 0.200945 0.0271234 0.96426 -3.36062 -0.408656 -0.0399041 -0.2402
1858 1 0.225073 0.175237 0.0520168 0.376164 -3.32658 0.162097 0.38835 -0.0399809
1941 1 0.250618 0.201734 0.052971 0.887235 -3.29171 -0.0336143 -0.47511 -0.247714
343 1 0.273291 0.198516 0.0246721 2.37922 -3.31612 0.179701 0.326411 0.339992
1862 1 0.273498 0.17607 0.0509703 0.720923 -3.33953 0.58064 -0.09707 -0.01436
258 1 0.2249 0.175468 0.999584 0.593555 -3.30467 0.0916025 -0.414198 0.316841
262 1 0.278465 0.175484 0.999103 2.66679 -3.3314 -0.47882 0.0632698 0.257092
268 1 0.301327 0.17867 0.0258905 2.14221 -3.30489 -0.162717 -0.572494 -0.0110697
1945 1 0.299876 0.201834 0.0517198 0.669873 -3.35147 0.262415 -0.409682 -0.0902609
345 1 0.298936 0.203048 1.00023 1.10857 -3.33261 0.572796 -0.498133 -0.185773
347 1 0.325335 0.201427 0.0267511 0.958767 -3.28406 -0.0121957 0.224865 -0.516232
1866 1 0.325799 0.175874 0.0508933 0.259203 -3.33724 -0.202351 0.16088 0.147943
266 1 0.322143 0.175336 -0.00215645 1.68282 -3.33854 0.2577 0.378014 0.787711
272 1 0.348185 0.175414 0.0241653 0.439588 -3.36341 0.207888 0.0418831 -0.0566015
349 1 0.349642 0.200533 -2.76833e-05 0.347902 -3.35553 -0.378239 -0.169851 0.10369
1949 1 0.349172 0.201649 0.0497726 0.587845 -3.27921 0.377344 -0.283792 -0.0299168
351 1 0.37442 0.200315 0.0250125 0.264951 -3.3691 0.0157601 -0.0345304 0.0516835
1870 1 0.376114 0.176138 0.0503699 1.05123 -3.33712 -0.199596 -0.00492059 -0.228161
270 1 0.374706 0.17345 -0.00197441 1.52028 -3.29121 -0.197686 0.649188 0.520273
276 1 0.397503 0.173502 0.0240499 1.5912 -3.26166 0.0887739 0.671052 0.200407