ITEM: TIMESTEP
12750
ITEM: NUMBER OF ATOMS
32000
ITEM: BOX BOUNDS pp pp pp
5.0414739690296502e+00 7.5958526030970404e+01
-2.7191477562506634e+00 8.3719147756250791e+01
-3.6968615284345177e+00 8.4696861528433715e+01
ITEM: ATOMS id type xs ys zs c_csym c_peratom fx fy fz
4 1 0.0108032 0.0393038 0.0320745 0.887572 -3.30686 0.379405 -0.0554791 -0.609984
3 1 0.0230949 0.00971103 0.0216626 0.88919 -3.32133 0.220147 -0.00195298 0.611602
2 1 0.0232961 0.0328384 0.000605529 0.943065 -3.29561 0.25727 0.117128 -0.346686
1 1 0.999457 0.006903 0.997279 1.41712 -3.27225 -0.709914 0.410892 0.109113
78 1 0.985689 0.0383218 0.00673867 0.530492 -3.3322 -0.106331 0.186168 -0.116193
5 1 0.0367339 0.00199429 0.993169 0.481161 -3.29242 0.332827 -0.012754 -0.0628104
8 1 0.0525594 0.0352584 0.0220957 0.750843 -3.26824 -0.0615079 -0.474632 0.90793
12 1 0.0948488 0.0291917 0.0158749 1.68548 -3.29083 -0.667566 -0.481517 0.374473
6 1 0.0657008 0.0280483 0.993482 1.10198 -3.28274 -0.484782 -0.326503 -0.0518003
7 1 0.0654991 0.00468936 0.0157856 0.888448 -3.37147 -0.108957 -0.283716 0.153194
16 1 0.130499 0.0205994 0.00997066 0.551604 -3.29483 -0.00175715 -0.114838 0.205123
1614 1 0.155911 0.022638 0.0350035 0.596784 -3.36017 0.321129 -0.172783 -0.105618
95 1 0.154476 0.0470883 0.0108895 0.886845 -3.29265 0.89587 0.231714 0.72236
1613 1 0.129257 0.997749 0.0336135 1.04445 -3.29641 0.210937 -0.184325 0.512881
20 1 0.167174 0.0110871 0.00506582 7.44276 -3.26154 0.0978625 0.466193 0.555574
99 1 0.193539 0.0375347 0.00722337 7.02458 -3.28863 -0.801107 -0.160923 -0.0774501
24 1 0.222874 0.0145905 0.00737814 0.375929 -3.28472 -0.222542 -0.258665 0.118458
1618 1 0.194528 0.0138284 0.0302642 7.91023 -3.32815 -0.276176 0.0138521 -0.0440135
1701 1 0.219164 0.0402828 0.0300862 7.60958 -3.27794 0.418122 -0.345774 0.483842
103 1 0.247442 0.0392002 0.008138 0.693337 -3.27161 -0.180503 0.253748 -0.315892
28 1 0.278958 0.0147857 0.00837873 0.884293 -3.22871 0.279251 0.475135 -0.236789
1622 1 0.250684 0.0142172 0.0293427 1.55041 -3.29038 -0.250695 0.256741 0.834672
1705 1 0.273621 0.0405778 0.0295523 1.07781 -3.29475 0.332762 0.0622937 0.396975
32 1 0.331878 0.0216641 0.00537828 2.98686 -3.26003 -0.463053 -0.582796 -0.00010547
107 1 0.30122 0.0420963 0.00656681 0.419237 -3.32864 -0.136877 0.204166 0.0451211
1626 1 0.304608 0.017296 0.0309224 0.934776 -3.33896 0.348653 -0.0396537 0.120275
1709 1 0.328508 0.0432185 0.0295752 0.7519 -3.34957 -0.158791 0.22481 0.0991828
36 1 0.384888 0.0242279 0.0102827 1.77973 -3.17104 0.428418 -0.779125 -0.319023
111 1 0.357587 0.0437765 0.00700589 1.346 -3.26718 -0.371037 1.10033 -0.111151
1633 1 0.38215 -0.000237318 0.0322893 6.14431 -3.34199 0.567191 -0.448656 -0.049054
1630 1 0.356942 0.0215132 0.0292376 3.31459 -3.19868 -0.585482 0.0778699 0.729691
1713 1 0.38262 0.0464045 0.0330811 0.798764 -3.29304 -0.194188 -0.0640859 0.175109
40 1 0.440383 0.0239054 0.0102872 0.48864 -3.35236 0.0112871 -0.171322 -0.0188423
115 1 0.409842 0.0476462 0.0119453 1.2882 -3.25109 0.216434 -0.190505 -0.531653
1634 1 0.412394 0.0227626 0.0329452 0.60463 -3.31801 -0.0848732 0.0497443 0.0884208
1717 1 0.438379 0.0499237 0.0328936 1.09253 -3.31679 -0.100931 -0.611822 0.433941
35 1 0.412869 0.999093 0.0100699 0.582561 -3.34201 -0.0768108 -0.361847 -0.0301121
1637 1 0.440665 0.999852 0.0341478 0.506507 -3.34245 -0.0627202 0.0900081 -0.384207
44 1 0.492059 0.0256993 0.0116493 1.14267 -3.29204 0.536876 0.123888 -0.246843
119 1 0.4651 0.049815 0.0102176 0.791317 -3.3253 0.405764 -0.146416 -0.00536546
1638 1 0.467366 0.0257096 0.0336852 0.708373 -3.2723 -0.752233 0.0155076 0.199378
1642 1 0.524393 0.0274295 0.033424 1.35639 -3.28695 -0.481704 0.0464812 0.358065
48 1 0.549122 0.0262985 0.00991335 1.04329 -3.2843 0.593278 0.493926 0.152137
47 1 0.553453 0.00446842 0.0325167 1.10544 -3.3258 -0.199198 -0.414035 0.226798
52 1 0.582032 0.0295303 0.0320322 0.814376 -3.28255 -0.445945 -0.404768 0.220512
51 1 0.609395 0.00426436 0.0303741 0.902794 -3.31425 0.286066 0.296819 -0.0573264
49 1 0.581181 0.00561483 0.00986853 1.40259 -3.29413 -0.109122 -0.214418 -0.251561
56 1 0.637604 0.0307581 0.0296504 0.277685 -3.33315 0.206309 -0.169548 -0.216025
60 1 0.695495 0.0346073 0.029215 0.401798 -3.33806 0.13998 -0.00291303 -0.257403
55 1 0.668259 0.00925516 0.0284263 0.524124 -3.33578 -0.0449624 -0.0602887 -0.319829
1654 1 0.668703 0.0334304 0.0522193 0.449327 -3.30713 -0.435367 -0.0874333 -0.205513
54 1 0.667336 0.0338687 0.00635676 1.44385 -3.26036 -0.209255 -0.391916 -0.0705152
64 1 0.754975 0.0377632 0.0281397 0.517127 -3.29395 -0.712175 0.0915973 -0.138564
58 1 0.723045 0.0362778 0.0053494 0.944503 -3.36149 0.387997 0.019332 -0.347582
59 1 0.725636 0.0131206 0.0263555 0.90275 -3.31458 0.242645 -0.0431925 0.348774
61 1 0.754498 0.0144409 0.00567603 0.762624 -3.30682 0.00183526 -0.0297087 -0.541897
63 1 0.782281 0.0160857 0.0263146 0.761365 -3.26559 0.578306 -0.415441 0.440541
68 1 0.810469 0.0402109 0.0285763 0.569908 -3.28141 -0.421823 0.0339417 -0.232989
65 1 0.812112 0.0172921 0.00274983 0.721823 -3.32486 -0.00718217 -0.0212979 0.431636
62 1 0.782645 0.0392989 0.0055589 0.661269 -3.32882 -0.137115 0.0281671 -0.679352
72 1 0.864576 0.0433289 0.0327781 2.00721 -3.23749 0.103309 -0.210931 -1.0026
66 1 0.839488 0.0429224 0.00532624 0.648341 -3.3142 -0.230096 -0.0468172 0.124435
67 1 0.836831 0.0189613 0.0284259 2.49311 -3.26424 0.577306 -0.511416 -0.157326
69 1 0.865395 0.0198692 0.00673678 0.822678 -3.26369 0.402125 0.0451292 0.0524606
70 1 0.89264 0.0432471 0.0106194 0.857825 -3.27632 -0.171567 0.555484 -0.600814
76 1 0.914614 0.0434038 0.0354096 0.846388 -3.28088 -0.0261273 0.266002 0.344162
73 1 0.919073 0.0198544 0.010399 7.03152 -3.29878 0.271921 -0.29183 0.0286849
71 1 0.890608 0.0183565 0.0332408 1.07422 -3.27297 -0.383503 -0.221447 0.259112
75 1 0.944057 0.0212969 0.0357009 7.03768 -3.32088 -0.0380791 -0.228455 -0.0522146
74 1 0.945272 0.0456241 0.0139416 7.97704 -3.3167 0.188128 0.186145 -0.308769
80 1 0.973306 0.0450259 0.0381816 7.08607 -3.28235 -0.267228 0.322338 -0.444997
79 1 0.981906 0.0135079 0.028404 2.18668 -3.28086 0.61854 0.387565 -0.198569
77 1 0.95806 0.0171349 0.00247916 2.76277 -3.30848 -0.120019 -0.718847 0.197808
83 1 0.0372612 0.0649046 0.0330133 1.64089 -3.29343 0.40441 -0.271296 -0.38663
81 1 0.012881 0.0635828 0.00759629 0.159336 -3.30981 -0.083503 0.0937824 0.0376688
84 1 0.0290227 0.0947781 0.0401499 7.31712 -3.34508 0.0318939 0.392851 0.018257
82 1 0.0407081 0.0883428 0.007442 0.714936 -3.34109 0.0357987 0.0489503 0.130903
89 1 0.0909882 0.0517451 0.994197 0.647726 -3.26357 -0.025087 0.404289 0.0317962
88 1 0.0675251 0.0889916 0.0314298 1.06886 -3.37464 -0.0332235 0.320064 0.173915
85 1 0.0509206 0.0572395 0.00314818 2.08877 -3.26873 0.297278 0.664958 -0.78024
87 1 0.0808375 0.060091 0.0236348 0.767338 -3.27861 -0.475001 -0.31481 -0.0421301
92 1 0.106394 0.0836891 0.0272557 1.46979 -3.24227 -0.52729 0.610775 -0.704196
86 1 0.0792811 0.0840571 0.00137692 0.309829 -3.33584 -0.0291928 -0.134871 0.368495
91 1 0.117909 0.0537597 0.0170887 0.508312 -3.24599 0.116103 0.0105429 0.602736
96 1 0.142882 0.079684 0.0200493 0.453538 -3.27547 -0.0655986 -0.0328646 -0.352359
90 1 0.117144 0.0774444 0.996289 0.51596 -3.30741 0.119124 0.235186 0.0414393
94 1 0.155206 0.0742552 0.987121 2.72608 -3.25969 -0.601114 -0.112303 -0.181532
1697 1 0.182389 0.0492262 0.0364196 1.17344 -3.2974 -0.400293 -0.410571 -0.275207
100 1 0.177879 0.0748974 0.00993209 4.00475 -3.16223 0.371797 -0.49815 0.549754
1698 1 0.205253 0.0727949 0.0387803 1.44535 -3.24451 0.868763 0.371338 -0.305085
104 1 0.215125 0.0630153 0.00939384 6.52458 -3.33995 0.490098 0.484869 -0.470934
183 1 0.243699 0.0893667 0.00794558 5.99036 -3.3453 -0.158865 -0.0433891 -0.352177
1785 1 0.269013 0.0912494 0.0310428 6.99986 -3.26707 0.579239 0.12493 -0.0317374
108 1 0.271708 0.0657168 0.00609967 0.711051 -3.31434 -0.366547 -0.179157 -0.0890528
1702 1 0.245396 0.0666717 0.0318036 6.68166 -3.32391 -0.142024 -0.405473 -0.369551
112 1 0.326593 0.0693816 0.00788785 0.934788 -3.28932 -0.571417 -0.785628 0.0701616
187 1 0.293186 0.0922633 0.00589293 2.36339 -3.27298 0.340941 -0.494878 0.149093
1706 1 0.296546 0.0665288 0.0288423 1.39983 -3.322 0.246732 0.0662628 0.22691
1789 1 0.321609 0.0924217 0.0305609 1.14172 -3.25829 -0.152578 -0.421103 -0.346509
116 1 0.381118 0.0705469 0.00655182 0.845766 -3.3045 -0.247391 -0.052642 0.445411
1710 1 0.355324 0.0682898 0.0302191 1.55155 -3.33377 -0.417379 0.0445364 0.00839436
1793 1 0.376069 0.0948239 0.0284965 1.87849 -3.31866 0.0313324 -0.0718854 0.552439
191 1 0.349587 0.0916358 0.00572282 1.24729 -3.26347 0.536735 1.04529 0.486151
120 1 0.434604 0.0714934 0.0116494 0.793559 -3.31504 0.423941 0.681872 -0.347022
195 1 0.405851 0.0960596 0.00882158 0.447848 -3.29838 0.0957757 -0.499008 0.130958
1714 1 0.405681 0.0713029 0.0325591 0.962899 -3.32385 0.180306 0.359121 0.072532
123 1 0.519546 0.0507668 0.0103928 0.610676 -3.34251 -0.00966836 -0.10796 0.538211
124 1 0.489997 0.0760819 0.0136756 2.02922 -3.23564 0.511363 -0.559807 -0.668691
1718 1 0.464074 0.0741795 0.0343273 0.474946 -3.28412 -0.358446 -0.301659 0.329959
199 1 0.460857 0.0973942 0.012648 0.521911 -3.33997 -0.134718 0.100956 -0.438391
1801 1 0.48973 0.0986168 0.0343834 0.431675 -3.32088 0.106635 0.221315 0.666084
1722 1 0.519486 0.0749808 0.035206 0.298796 -3.35571 -0.121303 0.15926 0.00841642
1721 1 0.493067 0.0495844 0.0353573 0.687833 -3.35464 0.195166 0.484196 -0.370635
127 1 0.577333 0.0514144 0.0107397 0.583193 -3.37912 -0.323798 0.402921 -0.175361
128 1 0.548017 0.0750127 0.0115502 0.497162 -3.33748 -0.246251 0.0659464 0.153682
1726 1 0.575229 0.0776555 0.0346956 0.916459 -3.26581 0.06164 -0.0751563 -0.12394
1725 1 0.548265 0.0524956 0.0353819 1.10395 -3.33504 0.299121 -0.0265449 -0.265235
131 1 0.609001 0.0526522 0.0311875 0.81606 -3.30385 0.0061905 0.572998 -0.195639
132 1 0.602176 0.0782024 0.0104199 0.593575 -3.33025 -0.00600955 -0.279635 0.204386
1730 1 0.606697 0.07838 0.0527238 1.74547 -3.33412 0.446565 0.000376963 0.109451
136 1 0.634929 0.0799444 0.0291354 1.47955 -3.29541 0.190645 -0.784985 0.15211
1733 1 0.637069 0.0558934 0.0532376 0.473081 -3.35633 0.177238 0.0811132 -0.180299
1729 1 0.582196 0.053139 0.053823 1.18696 -3.32367 -0.398347 -0.251823 0.507873
1737 1 0.696284 0.05798 0.0514965 0.467804 -3.30265 -0.2236 -0.0416392 -0.0153317
135 1 0.664177 0.0554301 0.0289419 0.574602 -3.31837 0.110526 0.325398 0.233134
140 1 0.692538 0.0789864 0.0269238 1.52275 -3.33126 -0.0720454 0.24063 0.093084
1734 1 0.667464 0.0788844 0.0523522 1.19144 -3.36987 -0.367875 0.493687 -0.29227
137 1 0.693636 0.0567057 0.00465171 0.444738 -3.27638 0.384496 0.301677 0.0430721
139 1 0.725002 0.059262 0.0289517 0.775392 -3.36315 -0.0606618 -0.299568 -0.355809
144 1 0.75097 0.0845406 0.0268522 0.314513 -3.35135 0.168166 -0.0380767 0.277565
1738 1 0.720384 0.0828588 0.0487144 1.57911 -3.31062 0.402668 0.0223832 0.222112
141 1 0.752903 0.0605198 0.00285868 0.828239 -3.32675 -0.0540179 -0.339952 0.205585
138 1 0.723386 0.0811198 0.00523815 0.976503 -3.29039 -0.519956 -0.108244 -0.233582
145 1 0.808956 0.0639491 0.00525914 0.300949 -3.30773 0.114996 0.144878 -0.255835
143 1 0.780854 0.0628904 0.0271821 0.175005 -3.28666 0.25994 0.335703 -0.0669407
148 1 0.807147 0.0896851 0.0267325 1.04179 -3.31159 0.158213 -0.58269 0.280142
142 1 0.77998 0.0859672 0.00360813 0.533401 -3.33663 0.130667 0.402155 0.185148
147 1 0.833019 0.0650843 0.0290517 1.87991 -3.23122 0.832893 0.399005 -0.448404
149 1 0.864049 0.0679185 0.00702298 0.275213 -3.3122 0.152896 -0.46164 0.0323697
152 1 0.860087 0.0917981 0.029653 1.18568 -3.30567 0.431832 0.0949566 -0.0447411
146 1 0.836937 0.0893058 0.00398394 1.09031 -3.33212 -0.380209 0.418405 0.134393
151 1 0.888816 0.069874 0.0326263 1.77966 -3.29326 0.754037 -0.171934 -0.353052
150 1 0.889581 0.0923802 0.00748383 0.519961 -3.26447 -0.0761239 -0.209232 0.515489
156 1 0.919215 0.0927592 0.0342456 1.21989 -3.31713 0.320243 0.145876 -0.332835
153 1 0.919805 0.0705488 0.0114265 1.18956 -3.32094 0.00960512 -0.353755 -0.0536278
155 1 0.943572 0.0669186 0.0381409 1.95565 -3.27626 0.112696 0.407008 -0.32807
154 1 0.950209 0.0949452 0.0119534 3.38343 -3.26685 -0.776518 0.000727967 0.630572
159 1 6.62554e-05 0.0729023 0.0385173 7.79005 -3.31931 -0.142116 -0.183742 -0.229502
160 1 0.970554 0.0956885 0.0405948 1.90861 -3.28569 0.135709 -0.357824 -0.472995
158 1 0.00318453 0.0953747 0.014707 7.66211 -3.24596 -0.248621 -0.450701 0.790364
157 1 0.974027 0.0707272 0.0136364 7.43435 -3.31532 0.0832857 -0.520229 0.360724
163 1 0.0568411 0.118654 0.0422941 6.71265 -3.32656 -0.0444837 0.1399 -0.0452384
162 1 0.0602712 0.143323 0.0212748 2.78946 -3.31497 0.0031738 -0.0250499 0.37779
164 1 0.0288329 0.143052 0.0444853 0.78006 -3.32869 0.222098 -0.00359696 -0.440874
161 1 0.0296673 0.119315 0.0180817 7.58253 -3.33394 0.418397 -0.0944503 0.0805137
165 1 0.0677464 0.115221 0.00950743 5.14595 -3.29366 -0.335025 -0.262965 0.223447
168 1 0.0841862 0.143741 0.0479629 1.92958 -3.20866 -0.158132 1.07764 0.0458704
167 1 0.0933159 0.119923 0.0335984 8.16852 -3.15234 -0.324578 -0.871632 -0.635322
172 1 0.118309 0.145764 0.0281445 8.50268 -3.27002 -0.103641 -0.513159 -0.034516
166 1 0.0893112 0.142168 0.999257 9.15247 -3.27925 -0.609444 0.225473 0.428522
169 1 0.104016 0.110855 0.00207248 1.30733 -3.28183 0.481764 -0.076556 0.396622
171 1 0.127502 0.111801 0.027717 2.76995 -3.23986 0.995491 -0.12808 -0.71075
176 1 0.156675 0.135956 0.0220351 1.87992 -3.26971 -0.70797 0.234537 0.507818
170 1 0.126644 0.139681 0.998643 3.67089 -3.20357 0.900348 -1.18071 -0.397489
173 1 0.14129 0.104441 0.99692 1.74006 -3.33516 0.0852954 0.190722 0.131674
174 1 0.165992 0.129647 0.992796 1.39689 -3.3291 0.0556329 0.151529 -0.215074
179 1 0.204319 0.095392 0.0123383 1.67931 -3.2294 0.519941 0.550133 0.302349
175 1 0.169203 0.105234 0.0201663 1.63096 -3.30823 -0.348016 0.0797349 -0.150854
180 1 0.192734 0.132378 0.0172432 2.25973 -3.25558 0.71904 -0.379697 -0.0621772
1781 1 0.232316 0.0974861 0.038217 0.45391 -3.28042 -0.0184185 -0.000465766 -0.298819
184 1 0.228652 0.120485 0.0146722 3.66978 -3.30065 0.381816 0.200962 -0.436331
1782 1 0.258294 0.123842 0.0372467 0.339406 -3.26869 0.290189 -0.0373302 0.389193
188 1 0.269656 0.116218 0.00907793 2.80879 -3.25886 -0.142776 0.191836 -0.691939
1786 1 0.296683 0.118266 0.0304829 6.99519 -3.30023 -0.0127379 -0.0833561 0.520854
192 1 0.318366 0.115722 0.00608424 2.80387 -3.27169 0.149269 -0.108066 -0.555236
267 1 0.300164 0.144917 0.00762756 1.63177 -3.29504 -0.474167 -0.104863 -0.0289716
1869 1 0.323879 0.144127 0.0323902 1.66011 -3.25775 -0.166413 0.14429 0.0187588
196 1 0.374899 0.118529 0.00799727 0.60288 -3.34509 -0.332232 -0.143941 -0.11804
271 1 0.341518 0.140101 0.00456273 7.33151 -3.32807 0.400045 -0.00364823 0.158849
1790 1 0.342854 0.116848 0.0300157 6.69117 -3.25613 0.736589 0.199295 -0.265986
1873 1 0.369782 0.139935 0.0311538 5.86141 -3.32858 -0.179009 0.218844 -0.194113
1797 1 0.433193 0.0967871 0.0343642 0.380973 -3.30579 -0.00484206 -0.415926 -0.545837
200 1 0.430849 0.119313 0.00973666 0.395979 -3.35013 0.288106 0.333889 0.450838
1794 1 0.403102 0.117809 0.0319136 0.321012 -3.33572 -0.151324 0.1512 0.130792
275 1 0.399638 0.142923 0.00826636 0.527966 -3.34302 0.242885 -0.0505901 0.125551
1877 1 0.427486 0.143265 0.0345935 0.537039 -3.27574 -0.14031 -0.664707 -0.818707
1798 1 0.458941 0.120424 0.0354489 0.333345 -3.30133 -0.0778878 -0.189915 -0.505465
279 1 0.45622 0.145033 0.0124643 0.686692 -3.31236 -0.401093 -0.24369 -0.415955
203 1 0.516695 0.0999554 0.0118214 0.447815 -3.33004 0.489993 -0.296539 0.1494
204 1 0.488272 0.122039 0.0117779 0.393695 -3.29878 -0.235006 0.0974067 -0.14205
1802 1 0.514089 0.125466 0.0345462 0.935626 -3.30781 -0.00277208 -0.566107 0.338742
283 1 0.51383 0.14735 0.0106951 0.846941 -3.32345 -0.151537 0.0200604 0.175938
207 1 0.574113 0.100912 0.0132358 1.17385 -3.28329 -0.70029 0.186177 -0.786188
1805 1 0.545732 0.100501 0.0352057 0.46075 -3.33386 -0.0597579 0.0965201 -0.371174
208 1 0.541548 0.124563 0.0126246 0.928104 -3.32659 0.546422 -0.185598 0.0417669
1806 1 0.572413 0.127139 0.0349144 1.01659 -3.33496 -0.410743 0.0277917 0.0839719
1809 1 0.599302 0.104609 0.0338636 2.47951 -3.29351 0.682303 -0.172955 0.650033
211 1 0.627128 0.102946 0.0107212 2.03239 -3.28212 0.162864 0.66871 0.250692
212 1 0.597261 0.127714 0.010185 1.3794 -3.29735 0.491591 -0.562856 0.319374
1810 1 0.627946 0.12843 0.0334321 2.45198 -3.28508 -0.618198 -0.292278 0.0138696
1813 1 0.636013 0.101974 0.0499853 3.48718 -3.28755 -0.330485 -0.130838 0.272414
215 1 0.664841 0.103863 0.0278177 5.69624 -3.31491 -0.371625 -0.803651 -0.173226
1817 1 0.694353 0.105509 0.0483476 1.32133 -3.29396 -0.577867 -0.190274 0.269331
216 1 0.65618 0.129957 0.0128867 6.70259 -3.218 -0.97842 -0.0777022 0.096753
220 1 0.690683 0.127626 0.0255867 5.79406 -3.19823 0.273016 -0.403551 0.225605
1814 1 0.660389 0.127518 0.0485629 6.05393 -3.26319 0.405066 -0.237621 -0.0843329
219 1 0.721264 0.108409 0.0270444 1.89658 -3.22165 0.0428188 -0.735884 0.0912881
1821 1 0.749121 0.107634 0.0499938 0.915359 -3.30126 -0.0573088 0.519411 -0.274284
224 1 0.746835 0.130513 0.0254096 0.626976 -3.24931 0.401574 0.340487 0.511935
1818 1 0.719661 0.131212 0.0494604 1.04045 -3.36351 0.00123144 0.190448 -0.0586577
221 1 0.747388 0.105446 0.00382053 2.37632 -3.21416 0.926228 0.0209284 -0.0605325
223 1 0.779113 0.109661 0.0282196 1.06928 -3.30209 -0.60864 0.0189006 -0.218246
228 1 0.8025 0.135306 0.0292635 0.759657 -3.3298 0.372707 0.412165 -0.0561086
225 1 0.807644 0.11401 0.00541846 1.16802 -3.30711 -0.0348289 -0.23097 -0.690507
222 1 0.775386 0.131767 0.00474968 1.39913 -3.27306 0.264828 0.218478 -0.0264188
227 1 0.831877 0.11345 0.0284222 1.30047 -3.27978 0.343602 0.438409 0.259794
229 1 0.862431 0.116164 0.00709964 0.755553 -3.34487 -0.268207 -0.121211 -0.368226
232 1 0.859482 0.138504 0.0291694 0.79514 -3.3195 0.159697 -0.126477 0.188152
226 1 0.834293 0.140065 0.00408353 1.17418 -3.31018 -0.061192 -0.585006 -0.234217
231 1 0.889991 0.116021 0.0309136 0.516482 -3.31853 -0.478667 -0.245416 0.463761
235 1 0.945087 0.119527 0.0389617 1.22246 -3.24186 0.0030025 -0.435548 -0.195117
236 1 0.916269 0.139397 0.034046 0.507542 -3.29384 -0.0548364 0.154632 -0.0125597
233 1 0.916894 0.116454 0.0104769 0.58811 -3.28568 0.455259 -0.12509 -0.0051023
234 1 0.945541 0.141371 0.0142202 0.315232 -3.30798 0.438097 -0.384963 -0.185333
230 1 0.890501 0.140818 0.00861801 0.770945 -3.34903 -0.116538 -0.177616 -0.170534
239 1 0.000815003 0.118533 0.0424661 0.712649 -3.30394 0.256146 0.1175 -0.294117
240 1 0.973165 0.143124 0.0401552 0.482826 -3.31062 0.146313 0.0633478 0.191079
238 1 0.00395521 0.141779 0.0195728 0.550049 -3.30011 -0.125935 0.0576614 -0.168248
237 1 0.974074 0.119867 0.019892 3.55512 -3.25344 0.313127 -0.298241 -0.937462
243 1 0.0554442 0.167584 0.0454154 0.884534 -3.30842 0.807078 -0.104292 -0.376396
248 1 0.0603184 0.190215 0.0219341 0.413481 -3.35491 -0.135285 -0.164517 -0.0115204
244 1 0.0301161 0.192181 0.0437141 0.669167 -3.31127 -0.137651 -0.367483 -0.0254876
242 1 0.0329073 0.191666 0.999042 1.12483 -3.31923 0.339458 -0.587973 -0.142244
241 1 0.0319857 0.164955 0.0211477 0.828984 -3.30235 -0.0471428 0.416076 -0.24347
245 1 0.0618468 0.166517 0.99945 0.390259 -3.35144 0.226257 0.211324 -0.145019
247 1 0.0887569 0.165659 0.0252446 1.30635 -3.28633 -0.55943 0.277786 -0.113151
249 1 0.115666 0.167161 0.00352194 7.80263 -3.20753 0.190537 0.680769 -0.273998
252 1 0.114839 0.191687 0.025728 0.451334 -3.30411 0.433695 0.270452 0.0983801
246 1 0.0910654 0.19111 0.00211176 1.06817 -3.29438 -0.345919 0.0527067 -0.329484
251 1 0.145962 0.16969 0.026379 8.47531 -3.32288 -0.35904 0.124942 0.623006
256 1 0.171607 0.195489 0.0320658 8.3085 -3.28931 0.00400408 -0.372375 -0.530931
253 1 0.155505 0.161806 0.998054 0.550367 -3.27725 0.167181 0.0132921 -0.182112
250 1 0.143774 0.193152 0.00386089 7.28879 -3.34126 0.187209 -0.162584 0.298101
259 1 0.22277 0.156795 0.0197911 1.06306 -3.28123 -0.639006 -0.402451 -0.0243041
255 1 0.182812 0.162571 0.0246294 0.405976 -3.29779 0.216579 0.0896707 -0.23444
260 1 0.21082 0.188054 0.0249696 0.477713 -3.35061 0.0997196 -0.156363 0.478869
257 1 0.195445 0.156353 0.995572 0.697785 -3.32127 0.0395518 -0.27046 -0.418167
254 1 0.184764 0.187781 0.00156348 0.59609 -3.31398 -0.266555 -0.144488 0.148345
258 1 0.225045 0.178902 0.99644 1.03839 -3.26715 -0.436396 0.499558 -0.201595
263 1 0.25885 0.146729 0.0159956 2.15702 -3.27724 0.187897 0.157546 -0.57916
264 1 0.249274 0.179352 0.020593 0.964739 -3.28066 0.0104327 0.44742 0.319027
268 1 0.286749 0.177048 0.0147452 0.890706 -3.27414 0.135337 -0.147422 0.169225
1866 1 0.313935 0.178163 0.039261 0.818421 -3.23776 -0.645745 -0.24699 0.0502142
272 1 0.323849 0.169983 0.0111834 1.22408 -3.3152 0.509796 -0.0435886 -0.495623
1949 1 0.33973 0.202937 0.0431676 0.849674 -3.27836 -0.00532096 -0.163524 -0.459533
347 1 0.314486 0.201221 0.0174916 0.469096 -3.36082 -0.0149524 0.35843 -0.185695
276 1 0.366587 0.165346 0.00918977 7.40154 -3.27 -0.0659164 -0.684291 -0.855736
351 1 0.352636 0.194414 0.0134102 0.488621 -3.3265 -0.31663 0.416971 -0.215256
1870 1 0.350426 0.170865 0.0350389 1.29233 -3.25131 0.0178255 -0.279031 0.510389
1953 1 0.378175 0.193641 0.0371729 0.503559 -3.31838 -0.0996256 0.110933 0.213566
355 1 0.391576 0.187967 0.00858748 7.44855 -3.27673 0.25043 0.3197 -0.497909
1874 1 0.395648 0.163808 0.0318804 6.16628 -3.28805 -0.319998 -0.0137469 0.150322
280 1 0.424973 0.167637 0.0105721 0.628299 -3.32656 -0.225872 -0.69596 -0.425801
359 1 0.447338 0.191332 0.0100727 0.767609 -3.23973 0.763627 -0.0978325 0.0506171
1878 1 0.451571 0.16665 0.0355842 0.870028 -3.21521 0.120066 -0.0815887 -0.527712
1957 1 0.417327 0.188823 0.0329499 7.80713 -3.24053 0.322579 -0.140421 0.0125772
284 1 0.480663 0.169463 0.0108783 0.372916 -3.38557 0.0783297 0.254178 0.0424946
1881 1 0.482903 0.14404 0.03303 1.26466 -3.27133 0.507886 0.623484 0.469159
1882 1 0.505657 0.171395 0.0347086 2.42711 -3.31457 0.385081 -0.355497 -0.393431
1961 1 0.471418 0.191392 0.0352359 3.76148 -3.21475 1.11045 0.221746 -0.562733
363 1 0.508985 0.193897 0.0113069 1.1427 -3.32768 -0.188656 -0.262346 -0.28482
287 1 0.568736 0.147663 0.011207 0.903329 -3.34294 -0.0748441 0.577887 0.196767
288 1 0.53898 0.17029 0.0136895 1.7262 -3.28009 -0.14889 0.421204 -0.524787
1885 1 0.538872 0.149189 0.036541 1.13894 -3.29944 0.512399 0.169326 -0.533247
1886 1 0.566785 0.17361 0.033662 1.18818 -3.32249 0.155962 -0.19503 0.306677
367 1 0.565873 0.196581 0.0103772 1.41027 -3.34488 -0.277169 -0.0759273 0.710495
1965 1 0.535224 0.194264 0.0361024 1.39358 -3.33254 0.0161624 0.500367 -0.657974
1889 1 0.599671 0.150796 0.0359756 1.95306 -3.30881 -0.604282 -0.130864 -0.0500671
291 1 0.624922 0.152508 0.0121702 0.283932 -3.21543 0.31511 -0.430028 0.402636
292 1 0.595975 0.173601 0.0134179 0.921496 -3.27801 -0.748222 0.157265 -0.349125
1969 1 0.59131 0.200254 0.03612 0.564869 -3.29523 -0.334121 -0.331193 -0.467135
1890 1 0.620347 0.176655 0.0364513 0.205243 -3.27515 0.289852 0.460383 0.0232931
1893 1 0.648529 0.154866 0.0367592 6.9713 -3.30634 0.25261 0.189791 0.0913686
295 1 0.679972 0.154146 0.0143651 7.06555 -3.27645 -0.393636 1.04031 -0.352818
296 1 0.650479 0.177155 0.0136178 0.698394 -3.35398 0.154768 0.257944 0.0549901
1894 1 0.675251 0.178683 0.0386107 6.30836 -3.2471 -0.46298 1.0498 -0.433141
1897 1 0.68832 0.152204 0.0455157 7.70805 -3.23257 0.125682 -0.765573 0.573453
300 1 0.706063 0.180886 0.017606 8.56547 -3.25633 -0.712987 0.443388 -0.320019
299 1 0.715953 0.15137 0.0238147 9.20779 -3.27347 0.832868 0.0979344 0.142809
304 1 0.744743 0.177951 0.0246654 6.39517 -3.34332 0.19352 -0.134104 0.359216
1898 1 0.71399 0.176823 0.0471551 7.76983 -3.30179 0.650449 -0.176712 0.373329
303 1 0.773127 0.156971 0.0281867 0.79681 -3.28973 0.179185 0.0995207 -0.397257
308 1 0.801528 0.179177 0.0279319 1.38252 -3.26924 -0.0283 0.400103 -0.0108905
305 1 0.802832 0.158353 0.00381833 0.869342 -3.28297 0.275968 -0.293327 -0.00632446
302 1 0.774385 0.178009 0.000173933 6.14271 -3.28057 -0.284433 0.494524 0.548468
309 1 0.862733 0.163351 0.00418786 1.64131 -3.2658 -0.17323 -0.125473 0.684266
307 1 0.831263 0.159789 0.027335 0.867784 -3.30087 -0.0299331 0.0170828 0.552288
312 1 0.861614 0.182548 0.0313499 1.03273 -3.23255 -0.576343 0.454689 -0.594023
306 1 0.83197 0.182714 0.00568114 1.13541 -3.30243 0.184065 -0.0344366 -0.211707
311 1 0.887484 0.161059 0.0325654 0.620913 -3.28212 0.580448 -0.195474 -0.022997
315 1 0.94441 0.163918 0.0370737 0.389982 -3.31871 0.27851 0.115467 -0.124566
316 1 0.916316 0.185776 0.035565 0.205506 -3.32968 0.264312 -0.174207 0.19793
313 1 0.91973 0.163197 0.0101953 0.817784 -3.2806 -0.110241 -0.0524096 0.40482
310 1 0.892011 0.183179 0.0108611 1.69169 -3.23162 -0.139333 0.368075 -0.326879
319 1 0.0017055 0.167169 0.0406763 0.887878 -3.30914 0.283935 -0.216881 0.4548
320 1 0.973154 0.187749 0.0402423 0.25741 -3.33579 -0.188789 0.201835 0.00585985
317 1 0.976527 0.165227 0.0169197 0.341153 -3.34598 -0.348005 -0.0185786 -0.297446
318 1 0.00350395 0.189912 0.0187327 0.280053 -3.34298 -0.0157138 -0.0392333 0.0943923
314 1 0.947212 0.188197 0.0144245 0.398586 -3.34627 -0.0637486 -0.357399 -0.164307
323 1 0.0335033 0.213842 0.0209438 0.611229 -3.34352 -0.379056 0.298075 0.150253
328 1 0.059076 0.23946 0.0247258 0.78856 -3.29177 0.0755102 0.0136158 -0.349752
1922 1 0.030482 0.237666 0.0446564 0.811666 -3.3242 -0.62482 0.130356 0.171548
321 1 0.00448172 0.212396 0.996563 0.318937 -3.32848 0.0386138 0.119455 -0.014784
322 1 0.0335466 0.236855 0.999468 0.54517 -3.29176 0.243352 0.203815 -0.269303
325 1 0.0629548 0.215594 0.998509 1.29308 -3.26012 -0.452828 -0.640493 0.326237
327 1 0.0850051 0.215055 0.0229159 1.46277 -3.29612 0.563748 -0.140194 0.623423
332 1 0.114089 0.239439 0.0275376 0.553681 -3.27979 -0.22226 0.0709576 -0.0724636
329 1 0.119506 0.217025 0.00237155 1.66549 -3.30105 -0.281682 -0.222342 0.261826
326 1 0.0902084 0.23671 0.00204755 1.37469 -3.26655 0.0756345 0.823354 -0.176047
331 1 0.141826 0.218302 0.0294622 0.794709 -3.28112 0.130984 -0.295206 -0.17764
336 1 0.171092 0.241128 0.0318895 1.01083 -3.31401 -0.0184423 0.741984 -0.400429
330 1 0.14191 0.243787 0.00600338 2.42661 -3.26287 1.06225 -0.576055 -0.0578733
333 1 0.170689 0.217473 0.00900449 7.60834 -3.32886 0.07118 0.345837 -0.294342
335 1 0.199431 0.219178 0.032595 7.48677 -3.28604 0.330797 0.166079 -0.233771
334 1 0.199756 0.242085 0.00718553 6.60645 -3.30822 -0.0222773 0.301934 0.762319
340 1 0.226971 0.245153 0.0313595 6.78884 -3.29129 0.0763803 -0.564812 0.300197
337 1 0.211724 0.212074 0.00239745 0.30222 -3.31875 0.185422 -0.230793 -0.245339
339 1 0.23766 0.213118 0.0259946 0.356438 -3.3101 -0.219162 -0.0265186 -0.0476033
338 1 0.241183 0.238345 0.00259328 1.06239 -3.30516 -0.601514 -0.352417 -0.0649036
343 1 0.273927 0.208215 0.0206078 0.932446 -3.31981 0.56842 -0.0761534 0.133536
344 1 0.266167 0.240387 0.0272333 0.952135 -3.29638 -0.401687 -0.157127 -0.0512925
342 1 0.27692 0.233379 0.996119 0.974905 -3.27773 -0.00203955 -0.185261 0.38318
341 1 0.251267 0.203846 0.995529 1.71113 -3.3634 -0.362204 0.437427 0.0582264
348 1 0.30211 0.233127 0.0207976 1.32955 -3.30911 -0.0980408 -0.0878745 0.388765
352 1 0.341733 0.227866 0.0189688 0.838082 -3.27038 -0.433331 -0.462361 0.274118
356 1 0.378979 0.219681 0.0128616 0.501531 -3.31076 0.182877 -0.174207 0.338279
431 1 0.366692 0.251201 0.0203426 0.323761 -3.27013 0.211193 0.113512 -0.31187
1950 1 0.365503 0.225358 0.043668 1.17109 -3.33309 0.340948 0.37502 -0.319828
435 1 0.406856 0.24315 0.0161413 1.2046 -3.36509 -0.39216 0.220113 -0.445627
1954 1 0.404615 0.218087 0.0375442 0.983335 -3.28086 -0.476712 0.44167 0.248826
360 1 0.417565 0.211488 0.00851048 6.64821 -3.26555 -0.267602 0.440473 -0.448078
2037 1 0.431503 0.245576 0.0392805 0.561918 -3.26072 -0.190697 0.00425889 -0.0631241
439 1 0.443975 0.236755 0.00744939 7.00363 -3.3415 0.302255 0.225408 0.486361
1958 1 0.440991 0.213215 0.0317959 6.84727 -3.24216 0.893757 0.454366 0.22065
364 1 0.476168 0.214067 0.0111849 1.50521 -3.26299 -0.485615 0.120609 -0.242076
1962 1 0.501756 0.216085 0.0320171 1.21772 -3.29833 0.423353 0.1971 0.827441
443 1 0.497559 0.240771 0.011822 1.63098 -3.29992 0.194092 0.0218178 -0.23658
2041 1 0.467668 0.237264 0.0344474 6.73081 -3.32296 0.584057 0.323462 -0.437035
368 1 0.53381 0.218794 0.0100128 0.593524 -3.31778 -0.143407 0.0389477 0.370371
1966 1 0.560885 0.221999 0.0352971 0.470888 -3.35087 -0.576345 -0.334951 -0.0407817
2045 1 0.528024 0.242431 0.0342656 0.393734 -3.34116 -0.328097 -0.197161 0.0171189
447 1 0.557156 0.244102 0.0124746 0.742313 -3.33046 0.107437 0.477595 -0.0747471
371 1 0.617281 0.200202 0.0118852 1.68897 -3.24219 0.506186 -0.123265 0.834535
372 1 0.589184 0.223746 0.0136668 0.622796 -3.27681 0.350485 0.10482 0.190686
1970 1 0.614274 0.225717 0.0379974 1.00142 -3.31489 0.381386 0.197214 -0.152909
2049 1 0.585757 0.24803 0.0351507 0.520738 -3.31473 -0.0422812 -0.518178 0.200307
451 1 0.618245 0.248558 0.015002 1.40819 -3.34473 -0.377022 -0.179461 -0.336561
1973 1 0.643747 0.203261 0.0362816 1.1479 -3.33071 0.332225 -0.335684 0.509253
375 1 0.675025 0.204324 0.0167886 1.14268 -3.31045 -0.0411982 -0.305388 -0.21555
376 1 0.644614 0.224545 0.0150267 1.04537 -3.32554 0.24338 0.712414 -0.053522
1974 1 0.671911 0.230115 0.0400385 1.06721 -3.33969 -0.202708 -0.549011 -0.124563
2053 1 0.642473 0.250835 0.0393144 0.52451 -3.30178 -0.127356 -0.0211007 -0.337453
1977 1 0.699761 0.205826 0.040302 6.56159 -3.27776 0.533799 0.195401 -0.273811
379 1 0.732658 0.207068 0.0184237 8.58856 -3.24122 -0.773082 -0.550774 0.0869691
380 1 0.702058 0.227704 0.0161206 1.38114 -3.28769 -0.138215 -0.0429453 0.39932
2057 1 0.697964 0.253324 0.0394905 1.24149 -3.32289 -0.29426 0.14035 0.549313
384 1 0.753752 0.231107 0.018564 6.48282 -3.18145 0.0826463 0.263329 -0.0245092
1978 1 0.727843 0.229463 0.0427575 5.51015 -3.23213 -0.860647 -0.38113 -0.365322