ITEM: TIMESTEP
12500
ITEM: NUMBER OF ATOMS
32000
ITEM: BOX BOUNDS pp pp pp
4.9398736079093917e+00 7.6060126392090652e+01
-2.7290422107658543e+00 8.3729042210765982e+01
-3.5905345095819925e+00 8.4590534509581062e+01
ITEM: ATOMS id type xs ys zs c_csym c_peratom fx fy fz
4 1 0.0134831 0.0416539 0.0332851 1.00233 -3.2495 0.546349 0.115244 -0.0523631
3 1 0.0294552 0.0107154 0.0294008 1.2754 -3.30779 -0.0344078 0.266709 -0.472241
2 1 0.0257855 0.0354748 0.00391716 1.04806 -3.34211 0.356816 -0.359637 -0.393309
1 1 0.00122353 0.0086368 0.000205809 0.676129 -3.31767 -0.338619 0.385013 0.367141
78 1 0.989272 0.0402034 0.00698719 0.517556 -3.29737 -0.162747 -0.112476 0.248971
5 1 0.0386407 0.00354861 0.998828 1.91804 -3.29751 0.019799 0.122547 -0.538457
8 1 0.0518855 0.03685 0.0286378 0.73784 -3.33908 0.200901 -0.243043 0.247472
12 1 0.0888655 0.0294152 0.0235101 1.2071 -3.32362 0.55841 0.0130726 -0.0177965
6 1 0.0641369 0.0273613 0.99795 0.330223 -3.30875 0.0118047 0.320589 0.0816649
7 1 0.0670234 0.00451732 0.0205814 0.673662 -3.26321 -0.103745 0.0891693 0.432884
16 1 0.128658 0.0215671 0.0166831 0.326704 -3.31106 0.275453 0.248615 -0.0568348
1614 1 0.157183 0.0235887 0.0382391 0.978665 -3.30173 -0.271502 -0.0142405 0.57294
95 1 0.155068 0.0461143 0.0161982 0.553585 -3.25039 0.235924 -0.214547 -0.542234
1613 1 0.131679 0.99861 0.041008 0.436229 -3.31675 0.0379151 0.587292 -0.131859
20 1 0.167984 0.0150876 0.0086934 6.70272 -3.34411 -0.0500356 -0.0222083 -0.221276
99 1 0.195122 0.0404396 0.00948532 7.17079 -3.29979 -0.481961 -0.208586 -0.606349
24 1 0.223624 0.0177203 0.0112694 0.630888 -3.28912 0.428986 -0.207184 -0.592712
1618 1 0.194117 0.0170804 0.0314824 7.23878 -3.25964 0.23596 0.0488361 0.531165
1701 1 0.220662 0.0405868 0.0332401 6.63395 -3.33196 0.298809 0.259247 -0.106998
103 1 0.251296 0.0435014 0.00862372 0.913661 -3.29129 -0.588311 -0.66551 0.228928
28 1 0.281318 0.0198178 0.0124703 1.21559 -3.22372 -0.659093 -0.167764 -0.377426
1622 1 0.251478 0.0180113 0.0326177 1.03538 -3.31776 0.290293 0.249309 0.141324
1705 1 0.275817 0.0459063 0.0328392 1.23144 -3.29605 0.0709694 -0.607011 0.168975
32 1 0.331529 0.0240313 0.0114331 0.94583 -3.35564 0.243089 -0.359739 0.0366406
107 1 0.302673 0.0455002 0.0107811 0.233161 -3.28339 0.0704219 0.197437 -0.0318803
1626 1 0.304958 0.0197243 0.0352207 0.775059 -3.30201 0.3796 0.308438 0.160885
1709 1 0.330381 0.0468225 0.0357414 0.366809 -3.32359 -0.0907763 -0.242999 -0.531929
36 1 0.385698 0.0253198 0.0125266 0.898606 -3.25884 -0.123612 0.172981 -0.448707
111 1 0.357993 0.0486314 0.0109979 0.426563 -3.34389 -0.219033 -0.0773832 0.0531959
1633 1 0.38758 0.00049232 0.0335408 1.05095 -3.25417 -0.162177 -0.220557 0.1888
1630 1 0.358712 0.0242095 0.0358594 0.652202 -3.29768 0.0606433 -0.221802 -0.32693
1713 1 0.383615 0.0484958 0.0350348 0.622875 -3.34311 0.222632 0.154818 0.0342464
40 1 0.441845 0.0265462 0.00873819 0.999142 -3.32754 -0.284161 -0.183221 0.287585
115 1 0.411933 0.0512039 0.0112665 0.810605 -3.31193 -0.175522 -0.379995 -0.290986
1634 1 0.412892 0.0253522 0.0323164 0.524831 -3.30548 0.530084 0.229661 0.506997
1717 1 0.439912 0.050952 0.0318568 0.256361 -3.33453 0.0698155 -0.122533 0.139126
35 1 0.413009 0.00185337 0.0100732 1.00408 -3.28841 0.322926 -0.0560985 -0.312983
1637 1 0.441366 0.00134445 0.0306488 0.939814 -3.2289 -0.517936 0.811456 0.402649
44 1 0.49226 0.0251931 0.00777071 0.861279 -3.3382 0.153896 0.228047 0.183278
119 1 0.467034 0.0504645 0.0073663 0.902288 -3.31198 0.558338 0.364156 0.289133
1638 1 0.46718 0.0271442 0.0340558 2.04341 -3.3071 -0.148888 -0.160053 -0.544225
1642 1 0.521968 0.0260228 0.0295522 0.774574 -3.32284 -0.213388 0.163517 0.370045
48 1 0.549212 0.0275571 0.007403 0.43309 -3.29369 0.0901169 0.261791 -0.212604
47 1 0.551176 0.00463638 0.0289574 0.408373 -3.31844 0.133546 -0.240138 0.174265
52 1 0.578633 0.0288896 0.0269021 1.99599 -3.31478 0.135649 -0.0313244 0.554836
51 1 0.60997 0.00364735 0.0303921 2.54091 -3.30604 0.172673 0.822881 -0.466928
49 1 0.581659 0.00388595 0.00692008 0.877708 -3.33571 -0.0316469 0.165443 -0.0657578
56 1 0.637599 0.0313967 0.0277884 0.734011 -3.30992 0.276666 -0.390612 0.143011
60 1 0.698534 0.0336796 0.0273732 0.71436 -3.26592 -0.0876646 0.298751 -0.324276
55 1 0.672731 0.0100468 0.0264454 1.29658 -3.28381 -0.936141 0.189744 0.331016
1654 1 0.668587 0.0338863 0.0500287 0.598378 -3.33684 -0.296232 -0.521309 -0.108733
54 1 0.671422 0.0332655 0.00432203 1.21942 -3.281 -0.694948 -0.146687 -0.275219
64 1 0.756891 0.0363642 0.0290926 2.66386 -3.28852 -0.634351 0.393516 -0.606256
58 1 0.727048 0.0362948 0.00243454 0.620893 -3.35915 -0.264423 -0.144949 -0.0126637
59 1 0.72711 0.0121949 0.0259555 0.274175 -3.33667 0.419115 -0.0483629 -0.213317
61 1 0.755284 0.014624 0.00314869 0.948335 -3.302 -0.177617 -0.674449 0.229279
63 1 0.78307 0.0136653 0.026801 0.529435 -3.3235 0.403745 -0.151583 0.124538
68 1 0.809681 0.0390908 0.0276692 0.586168 -3.31529 -0.00612411 0.428357 -0.336191
65 1 0.811698 0.0173344 0.004662 0.480731 -3.31765 0.0386287 -0.184785 0.26948
62 1 0.780261 0.0377881 0.00462217 0.996602 -3.27742 0.602382 0.312628 -0.132433
72 1 0.865418 0.0439021 0.0313917 1.20735 -3.22736 0.331781 -0.723842 -0.560188
66 1 0.840445 0.0405711 0.00600268 1.20478 -3.31098 -0.670289 0.69658 -0.184603
67 1 0.838401 0.0183877 0.0303316 0.922888 -3.29257 0.593242 -0.754015 -0.257203
69 1 0.866369 0.0198781 0.00762338 0.781656 -3.23597 0.418769 -0.131789 0.32689
70 1 0.894921 0.0418882 0.008269 1.29827 -3.27761 0.0431319 0.357986 -0.202946
76 1 0.921165 0.0434548 0.0346124 0.666729 -3.22286 -0.211351 0.577128 0.0509633
73 1 0.924919 0.0220711 0.0126506 6.80395 -3.34452 0.254125 -0.277401 -0.416348
71 1 0.893434 0.0199812 0.0321217 0.883657 -3.29307 -0.407823 -0.0149586 0.51922
75 1 0.949306 0.0243965 0.0387558 8.55782 -3.26489 0.443644 -0.824049 -0.531295
74 1 0.952523 0.0488947 0.0109047 7.38179 -3.28767 -0.418074 -0.649562 0.539622
80 1 0.978188 0.0451631 0.0394405 8.00569 -3.27139 -0.499202 0.807841 -0.105394
79 1 0.989975 0.0153958 0.0335703 1.0859 -3.26078 -0.0900605 0.233568 -0.705252
77 1 0.962284 0.0149783 0.00556611 0.491577 -3.35191 0.199873 0.214067 0.190702
83 1 0.0396045 0.0662787 0.0348941 0.831387 -3.30244 0.687093 0.115657 0.165665
81 1 0.0155349 0.0674367 0.00910172 1.17786 -3.24793 -0.0427785 -0.646062 -0.108757
84 1 0.0322531 0.0976047 0.0423118 7.31746 -3.31597 -0.226745 -0.139882 0.229469
82 1 0.0433437 0.0898849 0.00946529 0.614443 -3.22454 -0.308115 0.177466 0.209593
89 1 0.0906605 0.0516474 0.998559 0.151297 -3.3469 0.182626 0.0399108 0.16295
88 1 0.0685047 0.0913839 0.0338484 1.20174 -3.33474 1.0003e-05 -0.0684176 0.30509
85 1 0.0518174 0.0598776 0.00528813 1.02434 -3.27428 0.336668 -0.508778 -0.345896
87 1 0.0797947 0.0604257 0.0280761 0.767045 -3.30703 -0.358606 -0.180363 0.294183
92 1 0.106006 0.0821051 0.0333884 2.90135 -3.16555 -0.109033 0.552367 -1.75148
86 1 0.0786955 0.0831897 0.00526347 0.57104 -3.28978 0.780856 -0.226277 -0.281596
91 1 0.116766 0.0519702 0.0237643 0.41224 -3.31108 0.0580355 -0.0910599 -0.217289
96 1 0.144882 0.0740883 0.0229819 2.31923 -3.29546 -0.259896 0.893083 -0.155543
90 1 0.117381 0.075073 -0.00016 0.63891 -3.35855 -0.153208 0.1002 0.168866
94 1 0.155421 0.0723415 0.989665 2.27418 -3.2625 0.0981775 -0.685831 0.650274
1697 1 0.182267 0.0485757 0.0377191 0.719319 -3.31388 0.0702359 0.557221 0.369412
100 1 0.183127 0.0722721 0.0131261 1.27543 -3.30149 -0.522707 -0.271728 0.10066
1698 1 0.208763 0.0746281 0.0366252 1.4638 -3.27482 -0.679269 -0.466031 0.541456
104 1 0.219172 0.0638843 0.0081842 6.12195 -3.28614 0.52374 0.348686 -0.0575983
183 1 0.245482 0.0891711 0.00802114 7.46745 -3.27053 -0.127435 0.39676 0.554597
1785 1 0.270952 0.092336 0.0337834 7.41374 -3.33914 0.0556156 -0.0587531 -0.328109
108 1 0.273294 0.0673489 0.0086011 0.561704 -3.2611 0.532134 0.425395 0.299572
1702 1 0.245172 0.0669025 0.0331588 5.97983 -3.34095 0.286286 -0.105986 -0.212318
112 1 0.324653 0.071487 0.0109706 1.25439 -3.29438 0.535196 0.0654352 0.143917
187 1 0.296431 0.0945674 0.0106472 1.3452 -3.28629 0.519007 -0.396901 0.128243
1706 1 0.301209 0.0693383 0.0347449 0.228115 -3.2845 -0.0933766 0.0604594 -0.136445
1789 1 0.325843 0.0935445 0.0361107 1.14518 -3.26583 0.290606 0.0442349 -0.524592
116 1 0.382254 0.0734022 0.00926402 0.661588 -3.29716 0.156523 -0.44767 0.801564
1710 1 0.354242 0.0716727 0.0332649 0.703246 -3.35102 0.448241 0.106305 0.106658
1793 1 0.381283 0.0990989 0.0327149 1.23829 -3.31607 -0.08632 -0.521835 -0.0397352
191 1 0.351899 0.095113 0.0106232 0.933783 -3.3217 0.091926 0.387891 0.107855
120 1 0.438914 0.0760363 0.00946689 0.721719 -3.33358 0.177343 -0.291183 0.118366
195 1 0.408542 0.0991252 0.0104503 0.503559 -3.31083 0.137866 -0.0829633 0.0766488
1714 1 0.410569 0.0736402 0.0325378 0.48913 -3.34359 -0.343568 0.169766 0.283161
123 1 0.519347 0.0503192 0.00828361 0.583033 -3.24194 0.00449438 0.182454 -0.319847
124 1 0.490782 0.0787715 0.0100999 7.10666 -3.24146 -0.0710037 -0.83367 0.00786193
1718 1 0.466955 0.0764989 0.0334552 0.905177 -3.27127 -0.34592 -0.466794 -0.225023
199 1 0.464223 0.101622 0.01306 1.8262 -3.23157 -0.28188 -0.198282 -0.524479
1801 1 0.491225 0.101178 0.034271 0.606234 -3.30945 0.130992 0.160501 0.0546551
1722 1 0.519996 0.0755171 0.0331891 0.682399 -3.28677 -0.286154 0.199011 -0.402383
1721 1 0.49509 0.0505578 0.0299273 1.54538 -3.30735 -0.570418 0.149327 0.513183
127 1 0.577214 0.0543318 0.00804396 0.443692 -3.26341 -0.0590466 -0.174526 -0.0241153
128 1 0.548251 0.075561 0.0111543 0.864715 -3.32431 -0.279895 0.376287 -0.671718
1726 1 0.577825 0.0769042 0.0312577 0.41939 -3.3044 -0.0871351 0.140664 0.301703
1725 1 0.548336 0.0526913 0.0318962 0.771582 -3.29878 0.385777 -0.345895 -0.418693
131 1 0.606895 0.0531826 0.0283552 0.886001 -3.31466 0.373494 0.460329 0.180041
132 1 0.603911 0.0808158 0.00945057 1.70136 -3.32677 0.373239 -0.360797 -0.138165
1730 1 0.608974 0.0790257 0.0500031 1.54572 -3.31235 -0.408325 -0.357936 -0.177512
136 1 0.638249 0.0785385 0.0260727 2.77175 -3.37236 -0.254269 0.0749023 0.170247
1733 1 0.636765 0.0541163 0.050698 0.592626 -3.3354 0.0119888 0.331599 -0.141988
1729 1 0.580311 0.0512248 0.0515932 0.829002 -3.33393 -0.196707 0.16617 0.0786038
1737 1 0.697428 0.0569082 0.0475353 1.52391 -3.26006 -0.505513 0.563615 0.061698
135 1 0.663976 0.0544845 0.0268985 1.85429 -3.27572 0.597595 0.427508 0.108823
140 1 0.690066 0.0803497 0.0266308 1.86033 -3.36982 0.356365 0.172504 -0.105482
1734 1 0.665177 0.078346 0.051181 1.08148 -3.35388 -0.169181 0.0990638 -0.285582
137 1 0.695217 0.0577732 0.00263593 0.569871 -3.24902 0.729641 0.0774811 0.68866
139 1 0.724252 0.0584175 0.0247877 0.618972 -3.36717 0.191734 0.277436 0.15231
144 1 0.752131 0.0853667 0.0248873 0.706411 -3.3731 -0.399459 0.235329 0.00309652
1738 1 0.722069 0.0824187 0.0477179 0.490627 -3.32706 -0.0925059 0.0163091 -0.0664032
141 1 0.753606 0.0600686 0.00280839 0.519752 -3.31493 -0.119422 0.187721 0.145726
138 1 0.723617 0.0824896 0.00238717 1.04355 -3.32871 -0.314589 0.272612 0.397854
145 1 0.807449 0.0615248 0.00365505 1.69956 -3.37636 0.241913 0.293924 0.351873
143 1 0.780007 0.0641001 0.0275857 1.22616 -3.30291 0.452446 -0.372824 -0.560481
148 1 0.808251 0.0892941 0.026074 0.488609 -3.33402 -0.0621016 -0.470808 -0.221021
142 1 0.780519 0.0862907 0.00190454 0.986435 -3.2557 -0.687225 -0.218829 0.905279
147 1 0.838327 0.06608 0.0277008 0.738481 -3.32306 -0.742816 0.0217359 -0.239675
149 1 0.865865 0.0668701 0.00614549 0.444188 -3.3445 0.0718716 -0.0555685 0.0261097
152 1 0.866128 0.0899527 0.0307303 1.78761 -3.34677 -0.412853 0.128155 -0.282237
146 1 0.837848 0.0898355 0.00520529 0.827037 -3.33359 -0.374824 -0.33614 0.211446
151 1 0.894491 0.0647302 0.0292015 3.43172 -3.28469 -0.313615 0.734545 0.666119
150 1 0.892749 0.0923105 0.0075112 0.632868 -3.23709 -0.0515535 -0.408893 0.695751
156 1 0.918428 0.0915681 0.0345779 0.675976 -3.35759 0.524637 -0.158541 -0.549404
153 1 0.921984 0.0696996 0.00937923 0.861328 -3.27846 0.529569 -0.154505 0.426084
155 1 0.948873 0.0677551 0.0360181 0.952944 -3.3503 -0.0462474 0.366937 -0.0124491
154 1 0.95111 0.0928852 0.0120504 0.749564 -3.32565 -0.447515 0.364973 0.269725
159 1 0.00488491 0.0730415 0.0419513 7.29927 -3.3128 -0.805856 -0.0704955 -0.391908
160 1 0.975187 0.0937264 0.0379088 0.47791 -3.35786 -0.0730913 0.11894 -0.0546849
158 1 0.00590547 0.0967339 0.0160828 7.47874 -3.33782 -0.257488 0.245457 0.232909
157 1 0.979216 0.0712496 0.0126835 8.25411 -3.24302 0.00242202 0.0887804 0.587377
163 1 0.0599822 0.120934 0.0433649 8.14743 -3.24473 -0.218245 0.0402514 0.269996
162 1 0.0575572 0.14416 0.0229367 7.21091 -3.199 0.940153 0.364751 -0.241479
164 1 0.0303306 0.141104 0.0418364 1.66549 -3.26277 -0.879212 0.312357 0.683222
161 1 0.0346661 0.118549 0.0187608 6.79624 -3.24939 -0.730582 0.27379 -0.0232255
165 1 0.0696595 0.116663 0.00919779 7.06123 -3.21409 -0.00979201 -0.385124 0.58621
168 1 0.0854202 0.144792 0.0485866 4.05176 -3.30453 -0.130013 0.237851 -0.227889
167 1 0.0963072 0.114817 0.0381536 3.95574 -3.28298 -0.296316 0.0124754 -0.523462
172 1 0.117289 0.140953 0.0296414 7.989 -3.30987 -0.128926 -0.166486 -0.255002
166 1 0.0897665 0.141601 0.00391232 8.66777 -3.23899 0.520327 0.0457709 -0.405785
169 1 0.105315 0.106833 0.00623095 7.09997 -3.27206 0.247489 0.144697 0.4982
171 1 0.131077 0.105913 0.0303609 6.86385 -3.22683 0.0501588 0.0792997 -0.22381
176 1 0.154463 0.132733 0.0223505 1.91563 -3.35144 0.017639 -0.139443 0.0763079
170 1 0.127168 0.133573 0.996689 6.04595 -3.30464 0.077642 -0.150052 -0.113232
173 1 0.142954 0.100619 0.00150154 7.85871 -3.23414 -0.280645 0.270085 -0.757058
174 1 0.164763 0.126944 0.990783 5.14103 -3.27373 0.49362 -0.574105 0.804033
179 1 0.206736 0.098014 0.0140027 0.818484 -3.22291 -0.0386471 0.00245033 0.107694
175 1 0.169223 0.101258 0.0212834 1.65934 -3.25754 0.250548 0.23451 0.562846
180 1 0.193026 0.127149 0.0175797 1.34847 -3.31018 -0.188215 0.275683 0.28868
1781 1 0.231781 0.0980212 0.0365744 1.6213 -3.25714 0.771052 0.59944 0.389243
184 1 0.232156 0.123354 0.0149882 0.428337 -3.33561 0.247317 0.0585358 -0.373884
1782 1 0.25918 0.125586 0.0376044 0.699685 -3.28242 0.0921664 -0.24108 0.072009
188 1 0.272099 0.117831 0.00993507 6.42775 -3.31349 -0.600345 0.0231454 -0.437505
1786 1 0.299995 0.117322 0.0341957 6.29477 -3.27111 -0.198979 0.0639717 -0.522941
192 1 0.323833 0.118615 0.00886584 1.11836 -3.30724 0.222384 -0.0380596 0.429883
267 1 0.295892 0.142163 0.0115011 7.32147 -3.33476 0.107763 0.157688 -0.359693
1869 1 0.324288 0.143542 0.0357213 7.08383 -3.32158 -0.230033 0.115395 -0.469251
196 1 0.380159 0.122911 0.011086 0.566545 -3.32172 -0.0625743 -0.581625 -0.147027
271 1 0.352169 0.143865 0.0112901 0.574367 -3.31065 -0.478564 0.0929831 -0.313632
1790 1 0.350137 0.118515 0.0325307 1.96278 -3.34862 0.121239 0.274013 0.274386
1873 1 0.376861 0.147483 0.0335534 0.938132 -3.26803 0.228466 -0.757829 0.440295
1797 1 0.435603 0.0972095 0.0333171 1.3338 -3.3002 -0.169915 0.701917 0.120441
200 1 0.435609 0.12392 0.0103641 0.473726 -3.29088 0.0417945 -0.00340382 0.662615
1794 1 0.407192 0.123604 0.0341073 0.327336 -3.35377 0.0208424 -0.227828 0.066699
275 1 0.405838 0.146271 0.0115465 0.308471 -3.29591 0.0646608 0.294657 -0.108606
1877 1 0.430584 0.148869 0.0350104 0.716983 -3.34664 0.471594 -0.241554 0.0662879
1798 1 0.460485 0.124217 0.035562 0.66946 -3.37307 0.0143387 0.17055 -0.353251
279 1 0.4596 0.148597 0.0112768 0.282235 -3.30482 0.230651 0.0405736 0.2875
203 1 0.518706 0.0984651 0.00952289 1.4665 -3.28494 0.467582 0.591777 0.240114
204 1 0.488776 0.124148 0.00989627 0.761304 -3.3159 0.42362 0.118153 0.615457
1802 1 0.519458 0.124214 0.0336077 1.0958 -3.32923 -0.755791 0.0568937 0.209787
283 1 0.516141 0.148318 0.0107342 0.69318 -3.30917 0.448197 0.262378 0.233482
207 1 0.573936 0.103058 0.0106247 0.786111 -3.30235 0.406218 -0.19015 -0.0525645
1805 1 0.547319 0.100263 0.0326451 0.31587 -3.27077 -0.00242348 0.237107 -0.226114
208 1 0.545248 0.125803 0.0126516 1.21938 -3.27932 0.250196 -0.0294151 -0.451631
1806 1 0.578242 0.126961 0.0319812 4.34169 -3.26681 -0.348028 -0.0534202 0.610348
1809 1 0.60519 0.10426 0.0308237 1.87806 -3.26513 -0.250411 -0.281837 0.344491
211 1 0.632061 0.107117 0.00933796 2.54307 -3.21518 0.104124 -0.58337 0.167259
212 1 0.60366 0.127684 0.00902098 1.73266 -3.16873 -0.385143 0.136908 0.552428
1810 1 0.627673 0.129429 0.0365144 5.86033 -3.32807 0.0017902 0.38559 -0.310808
1813 1 0.6358 0.10279 0.0509816 2.39293 -3.27333 -0.206034 -0.416414 -0.0776267
215 1 0.662684 0.104516 0.0273784 1.91555 -3.3058 0.0711304 -0.324862 -0.0720746
1817 1 0.689273 0.104374 0.0510818 0.708466 -3.31462 0.479519 -0.171753 -0.201168
216 1 0.65732 0.131114 0.00956986 1.33568 -3.2763 0.0313514 0.230921 0.254294
220 1 0.688121 0.128931 0.0275137 2.28913 -3.31994 0.326292 0.271424 0.39101
1814 1 0.6615 0.125566 0.0522375 3.48398 -3.26185 0.376163 0.530645 -0.175286
219 1 0.719663 0.107522 0.0281232 0.674342 -3.29053 0.0293975 -0.250585 -0.382215
1821 1 0.747692 0.108006 0.0492285 0.755296 -3.3381 0.564 0.210196 -0.063039
224 1 0.748787 0.132815 0.0261417 0.728823 -3.342 -0.318682 -0.026746 0.201792
1818 1 0.719025 0.129378 0.050846 0.324961 -3.33851 -0.186911 0.284731 -0.0566334
221 1 0.747335 0.111035 0.0024726 2.22475 -3.27653 -0.0929937 -0.848965 0.399172
223 1 0.779494 0.111557 0.0267921 0.787474 -3.27755 -0.754098 -0.263404 -0.422053
228 1 0.802877 0.138068 0.0275645 1.33693 -3.26692 0.64944 -0.206553 -0.616913
225 1 0.808009 0.113228 0.00443888 1.27062 -3.21879 -0.340383 -0.794886 0.177409
222 1 0.775866 0.13201 0.00343077 1.22566 -3.25751 -0.00814863 0.675209 -0.106417
227 1 0.832838 0.114209 0.0267388 0.482032 -3.29768 0.440041 -0.0516769 0.573554
229 1 0.862807 0.114382 0.00591793 0.552526 -3.30107 -0.107364 0.0488838 0.260325
232 1 0.859037 0.138222 0.0267883 1.26384 -3.23322 0.103576 -0.44754 0.960793
226 1 0.833115 0.137408 0.00523204 0.976059 -3.26093 -0.183181 -0.143743 -0.279351
231 1 0.890679 0.114108 0.0303349 0.628569 -3.30159 -0.478602 0.250821 0.340168
235 1 0.945055 0.117631 0.0364406 0.302447 -3.3283 -0.193986 -0.34446 -0.347857
236 1 0.914621 0.139176 0.0321879 0.497467 -3.35472 0.22719 0.393997 0.575489
233 1 0.919749 0.11635 0.0108944 0.227693 -3.31917 0.422531 -0.228487 -0.134251
234 1 0.946712 0.140878 0.0129334 0.261543 -3.27779 -0.0467257 0.309121 0.105108
230 1 0.890445 0.139427 0.00814962 0.479088 -3.28435 0.0128186 -0.0475901 -0.0916136
239 1 0.00296295 0.118412 0.0406476 0.732521 -3.3464 -0.400391 -0.0131229 0.135638
240 1 0.972339 0.141374 0.0396116 0.618921 -3.29294 -0.0926859 -0.0843516 -0.455844
238 1 0.00129073 0.14159 0.0177752 1.46556 -3.33601 0.718634 0.347395 -0.125116
237 1 0.975987 0.119289 0.0151648 0.256196 -3.30224 0.0296746 -0.449581 -0.00844445
243 1 0.0546964 0.165301 0.0481506 2.56919 -3.29402 0.458209 0.533307 -0.709327
248 1 0.0598607 0.18844 0.0221851 1.13462 -3.38115 -0.0295417 0.197105 -0.338814
244 1 0.029439 0.188984 0.0416144 0.934051 -3.3147 0.205299 -0.0293694 0.466713
242 1 0.0342035 0.190103 0.994507 0.993653 -3.30254 0.201901 -0.45567 0.764716
241 1 0.0305006 0.165972 0.0187743 0.636727 -3.33441 0.032416 0.0412921 0.0596919
245 1 0.0635916 0.164916 0.997671 1.50231 -3.31027 0.0216263 0.691783 0.11684
247 1 0.0881176 0.166112 0.0251941 0.605147 -3.31836 -0.160495 0.0635874 0.147325
249 1 0.116837 0.165395 0.00424703 6.60004 -3.28425 -0.0820801 0.196963 -0.0646149
252 1 0.115277 0.191109 0.0285034 0.819946 -3.27122 0.148669 0.0284977 -0.539359
246 1 0.0929892 0.191226 0.00322599 2.30334 -3.32209 -0.463682 -0.112028 -0.266999
251 1 0.14202 0.165112 0.0293738 6.7295 -3.29661 0.503885 0.515657 -0.0244691
256 1 0.170096 0.193566 0.0317575 8.27619 -3.34179 -0.26819 -0.138151 -0.341752
253 1 0.154313 0.158107 0.000334866 0.634781 -3.25456 0.338594 0.135247 -0.0843107
250 1 0.143194 0.19164 0.00530337 6.89499 -3.3148 -0.0970447 -0.0949153 0.870207
259 1 0.218141 0.155099 0.0210444 0.996034 -3.31918 0.297157 0.149849 -0.0803268
255 1 0.180834 0.158626 0.0230676 1.59716 -3.26745 -0.20721 0.371709 0.662049
260 1 0.207138 0.188646 0.0295789 2.47671 -3.28029 0.155945 -0.454072 -0.840375
257 1 0.194739 0.151926 0.995906 0.862069 -3.32812 -0.222989 0.284823 -0.721372
254 1 0.182919 0.186315 0.00221211 0.754334 -3.2757 -0.359628 -0.291542 0.532273
258 1 0.220004 0.181593 0.998414 1.34886 -3.30792 0.303691 -0.742337 -0.0271565
263 1 0.255636 0.15093 0.0143967 2.42783 -3.23261 0.782901 -0.697061 0.245995
264 1 0.247861 0.179722 0.0217587 0.777711 -3.31885 -0.424448 0.447575 0.337389
268 1 0.286461 0.175397 0.0154786 0.975451 -3.31148 -0.0852617 -0.251206 0.168284
1866 1 0.311587 0.177495 0.0404839 1.83239 -3.29097 -0.0491081 -0.932609 0.596314
272 1 0.32335 0.16542 0.00999848 7.022 -3.32951 -0.0443009 0.282412 0.187613
1949 1 0.336383 0.201621 0.0442634 1.15568 -3.27652 0.54491 -0.262706 -0.40413
347 1 0.312711 0.199319 0.0199382 1.23113 -3.26916 0.205141 0.286554 -0.701175
276 1 0.378006 0.171307 0.010748 0.885402 -3.2857 -0.170742 -0.501715 -0.0752837
351 1 0.350808 0.193947 0.0118707 6.23895 -3.3232 -0.520256 -0.092818 0.103902
1870 1 0.350153 0.16898 0.0339455 7.29816 -3.29979 -0.537733 0.312767 0.157596
1953 1 0.376481 0.194006 0.0345619 7.33636 -3.32758 -0.353613 0.393535 0.515835
355 1 0.401753 0.195883 0.0101736 0.972334 -3.28253 -0.011799 -0.566322 -0.0690145
1874 1 0.401961 0.17145 0.0352152 0.415173 -3.26532 0.348596 -0.0650227 -0.118336
280 1 0.429881 0.171598 0.0119524 0.475304 -3.37176 0.203157 0.114293 -0.14345
359 1 0.454864 0.196322 0.010763 0.804718 -3.30195 0.426538 -0.128314 0.110591
1878 1 0.459578 0.172616 0.0355422 1.23229 -3.25234 -0.444695 -0.410045 -0.615999
1957 1 0.429278 0.19597 0.0339483 0.537556 -3.27776 -0.10432 -0.386209 -0.00478511
284 1 0.485307 0.172846 0.0123895 0.621009 -3.32034 0.350448 0.456186 -0.613999
1881 1 0.488446 0.149635 0.0326783 1.49237 -3.25993 -0.363982 -0.872463 0.366793
1882 1 0.510884 0.173443 0.0357046 1.07986 -3.31955 0.56261 0.49031 0.0686013
1961 1 0.482677 0.19856 0.0331985 0.979918 -3.35921 0.338942 -0.298218 0.208009
363 1 0.513754 0.199037 0.0114564 0.656798 -3.32383 -0.514658 -0.677529 0.34016
287 1 0.57147 0.149085 0.0122644 1.37288 -3.3212 0.180994 0.94814 0.0327287
288 1 0.541142 0.174686 0.0136525 1.01846 -3.32773 0.0756988 -0.475911 -0.365799
1885 1 0.543743 0.150695 0.0356051 0.677625 -3.35015 0.0130088 0.0910908 -0.085419
1886 1 0.569867 0.176305 0.0350288 1.00932 -3.26382 -0.188927 -0.764033 0.18942
367 1 0.56785 0.198587 0.0131323 0.50025 -3.2626 0.0528562 0.386326 0.00234004
1965 1 0.540846 0.197738 0.0347122 1.00997 -3.30625 -0.59665 0.50679 0.35596
1889 1 0.601391 0.154037 0.0369554 2.08217 -3.31045 -0.558381 -0.546278 -0.093176
291 1 0.627775 0.153056 0.0119806 0.486099 -3.35531 0.251243 0.219513 0.21809
292 1 0.597974 0.175835 0.0125799 0.626322 -3.32423 -0.0891856 -0.313468 0.0412548
1969 1 0.592993 0.20124 0.0369434 0.526145 -3.3084 0.0724518 0.0736672 0.149465
1890 1 0.624976 0.177695 0.0372987 0.598069 -3.29013 0.144758 -0.0416798 0.0897837
1893 1 0.654378 0.154006 0.0379634 6.4488 -3.33204 -0.443865 -0.106748 -0.438031
295 1 0.682228 0.157097 0.0110276 2.27426 -3.31872 -0.0505492 -0.235923 0.336989
296 1 0.652581 0.178686 0.012942 0.164387 -3.33108 0.145887 -0.104648 0.19152
1894 1 0.679517 0.178228 0.0380863 5.56893 -3.25038 0.0392507 0.6278 -0.517754
1897 1 0.688557 0.15167 0.051275 2.83808 -3.28256 0.244673 -0.746622 0.118313
300 1 0.706761 0.181416 0.0161445 6.74387 -3.30967 0.0965847 0.268214 -0.538959
299 1 0.716442 0.153746 0.0278549 2.88484 -3.30627 0.112966 -0.338689 -0.213427
304 1 0.74566 0.178461 0.0247974 7.41229 -3.30463 -0.408379 -0.322375 -0.277859
1898 1 0.715846 0.177062 0.0485361 6.80193 -3.2447 0.380193 -0.185646 0.121201
303 1 0.775298 0.158489 0.0260147 1.02589 -3.27159 -0.34646 0.154027 -0.673575
308 1 0.801917 0.182542 0.0242034 0.433199 -3.29585 0.140297 -0.155115 -0.000796447
305 1 0.802206 0.156769 0.999043 2.98088 -3.30049 -0.0981977 0.643598 0.691439
302 1 0.772888 0.179764 0.997502 6.53671 -3.26145 0.113425 -0.272474 0.592815
309 1 0.860325 0.1603 0.00561309 1.01112 -3.26537 -0.0959252 0.581011 -0.235875
307 1 0.830299 0.162062 0.0280434 0.956073 -3.34866 0.187669 0.127553 -0.352398
312 1 0.860998 0.18525 0.0277777 1.90623 -3.30863 -0.731045 0.339039 0.16754
306 1 0.830789 0.18349 1.00052 1.10365 -3.33214 -0.392749 -0.311536 0.284034
311 1 0.883651 0.161019 0.0312254 1.9823 -3.23453 1.21637 0.185366 -0.194741
315 1 0.943544 0.163463 0.0339701 0.710571 -3.34975 -0.331263 -0.00777372 0.536078
316 1 0.914401 0.185033 0.0324819 0.723576 -3.37257 -0.223198 0.00278104 0.041952
313 1 0.916563 0.163936 0.00811216 0.857545 -3.29391 0.30409 -0.384566 0.640253
310 1 0.888375 0.184438 0.00647675 1.20369 -3.21243 -0.0081829 0.0630299 0.812649
319 1 0.000766831 0.1657 0.0408977 0.415927 -3.31913 0.176146 -0.216706 -0.368129
320 1 0.970506 0.187411 0.0385106 0.742708 -3.33104 0.183806 0.0854169 -0.0130251
317 1 0.975531 0.166388 0.0157298 0.920817 -3.34327 0.089564 -0.337617 -0.293856
318 1 0.00478176 0.190449 0.0178475 1.40598 -3.2252 -0.225134 -0.86276 -0.549739
314 1 0.945723 0.186172 0.0115472 0.445607 -3.29639 -0.150523 -0.184994 0.304434
323 1 0.0327506 0.214015 0.019717 0.661217 -3.31925 -0.261107 -0.312607 -0.114466
328 1 0.0599878 0.237907 0.0214617 0.503539 -3.24355 -0.117203 0.269804 0.405298
1922 1 0.0280115 0.235887 0.0438722 1.14832 -3.27197 0.0322564 0.0152668 -0.804671
321 1 0.00495588 0.209942 0.994365 1.29172 -3.27581 0.065524 0.650479 -0.185573
322 1 0.0338228 0.236785 0.997449 0.613192 -3.26521 -0.254398 -0.0794536 -0.523801
325 1 0.0626373 0.215574 0.00015744 0.93738 -3.31509 0.157559 -0.747904 -0.283954
327 1 0.0880452 0.216382 0.0251623 0.610701 -3.28567 -0.0393948 -0.307953 -0.50205
332 1 0.113308 0.240636 0.0283177 0.900681 -3.33169 0.026087 0.103178 -0.487768
329 1 0.11777 0.21654 0.00192876 1.14925 -3.2335 -0.492121 -0.284577 0.628626
326 1 0.0900763 0.240218 0.000834029 0.558371 -3.33625 -0.103415 -0.237115 0.0269763
331 1 0.140295 0.217118 0.0301043 0.61707 -3.27707 0.0854588 -0.121702 -0.420341
336 1 0.1645 0.242198 0.0310931 0.950438 -3.29046 0.678659 0.163309 -0.24525
330 1 0.141275 0.23976 0.00589267 0.83163 -3.22742 -0.1089 0.891535 0.0194442
333 1 0.167175 0.218246 0.00691102 6.68092 -3.30511 0.802094 -0.428114 0.367626
335 1 0.19614 0.220485 0.0336666 8.18162 -3.33284 -0.127129 -0.275794 -0.309498
334 1 0.196276 0.241731 0.00980734 7.1577 -3.37167 0.271611 0.159768 0.172246
340 1 0.222368 0.245272 0.0355169 7.28225 -3.33038 0.0964832 -0.322261 -0.146564
337 1 0.207935 0.211198 0.00246077 0.668727 -3.26445 -0.20699 -0.0610791 0.610411
339 1 0.23583 0.211374 0.028297 0.944762 -3.32412 -0.353871 -0.100823 0.358135
338 1 0.235638 0.231848 0.00480972 2.90615 -3.23386 -0.143853 1.05282 0.636466
343 1 0.274554 0.205699 0.0234206 0.49482 -3.29748 -0.22461 -0.15527 0.246012
344 1 0.262062 0.235096 0.0310577 1.51358 -3.28816 -0.390928 -0.122639 0.153994
342 1 0.274573 0.230029 0.999843 0.807293 -3.29523 -0.00540523 -0.195395 0.218087
341 1 0.248322 0.203687 -2.78963e-05 0.754971 -3.29281 0.229278 -0.33529 -0.540612
348 1 0.29965 0.230445 0.0255538 0.310795 -3.30361 0.276166 -0.204846 -0.169835
352 1 0.338004 0.225296 0.0190261 0.54219 -3.2721 0.442016 0.0871803 0.914155
356 1 0.376516 0.220475 0.014368 5.77526 -3.17642 0.201444 -0.0125306 -0.295443
431 1 0.364362 0.250875 0.0202352 0.301354 -3.29563 0.00451664 0.0661161 -0.0465391
1950 1 0.364389 0.225431 0.0425771 0.465577 -3.3258 -0.0406272 0.0545687 0.564107
435 1 0.402495 0.246197 0.0142079 6.2324 -3.35534 0.214585 -0.15417 -0.326356
1954 1 0.403868 0.219167 0.0344166 7.09234 -3.2774 -0.161478 0.388283 0.58682
360 1 0.425504 0.21896 0.00897445 2.395 -3.28572 0.388741 0.600869 -0.219403
2037 1 0.429843 0.246106 0.037095 6.2028 -3.32445 -0.375768 -0.611679 -0.111621
439 1 0.454059 0.243634 0.011187 1.74773 -3.32695 -0.698029 0.14552 -0.256123
1958 1 0.454081 0.220342 0.0326905 1.24177 -3.28845 -0.155579 -0.00959182 0.314007
364 1 0.482085 0.22286 0.0104007 1.29455 -3.2261 0.153357 -0.647037 0.406056
1962 1 0.510376 0.221336 0.0345654 0.493009 -3.31956 0.135879 -0.195375 0.156691
443 1 0.509637 0.243343 0.0124782 1.3194 -3.28234 -0.0978655 0.927909 0.00337256
2041 1 0.480644 0.244173 0.0365161 1.04073 -3.28088 0.0745931 0.166611 -0.53386
368 1 0.539227 0.221928 0.0110242 0.763528 -3.29184 0.534347 0.249865 0.694397
1966 1 0.565993 0.225565 0.0361793 1.00454 -3.34915 -0.40711 -0.751506 -0.0306158
2045 1 0.535251 0.245736 0.0353611 0.324195 -3.33515 0.241556 0.304121 -0.0429289
447 1 0.564576 0.248118 0.0125234 0.313124 -3.35827 0.0359911 0.136306 0.363208
371 1 0.621323 0.200173 0.0147907 1.04123 -3.28781 0.508382 0.491995 0.0322559
372 1 0.594132 0.226093 0.0139559 0.506445 -3.33531 0.159078 -0.278674 0.12401
1970 1 0.620057 0.224789 0.0390893 0.440093 -3.33041 0.185548 -0.0202074 -0.291669
2049 1 0.591604 0.247773 0.0371359 0.408127 -3.27419 0.0596953 0.414711 0.0193005
451 1 0.62312 0.251024 0.0168839 1.57938 -3.32133 -0.57126 -0.340125 -0.590538
1973 1 0.65118 0.20183 0.0374106 0.775232 -3.31549 -0.302903 -0.113115 0.145794
375 1 0.677755 0.204046 0.0149817 0.251366 -3.30418 -0.109349 -0.266224 0.0173906
376 1 0.64793 0.225256 0.0158256 1.08831 -3.3576 0.0297306 0.130895 0.12766
1974 1 0.674877 0.227225 0.0412889 0.542316 -3.3197 -0.093988 -0.0142203 -0.274836
2053 1 0.645045 0.251791 0.040888 0.824434 -3.26476 0.344325 -0.320307 0.382208
1977 1 0.705161 0.205358 0.0393967 6.82818 -3.21368 -0.549491 -0.136752 0.185546
379 1 0.732161 0.206332 0.0153409 8.12221 -3.23598 0.193605 -0.134202 -0.140151
380 1 0.704469 0.226717 0.0194237 3.22902 -3.24092 -0.0388493 1.22646 -0.514522
2057 1 0.6968 0.253033 0.0436866 0.756854 -3.25839 0.237869 0.130825 -0.110935
384 1 0.754807 0.231849 0.0178092 7.5166 -3.29202 -0.49253 -0.100125 0.239339
1978 1 0.726638 0.233839 0.046092 8.17234 -3.17656 0.339054 -0.686398 -0.987004