ITEM: TIMESTEP
6500
ITEM: NUMBER OF ATOMS
32000
ITEM: BOX BOUNDS pp pp pp
2.5014649410231771e+00 7.8498535058976870e+01
-1.2380755488970578e+00 8.2238075548896973e+01
-1.2507375910398579e+00 8.2250737591039609e+01
ITEM: ATOMS id type xs ys zs c_csym c_peratom fx fy fz
8 1 0.0500644 0.026939 0.0233853 1.06047 -3.36407 -0.415744 -0.578576 0.262533
1602 1 0.0241264 0.0267691 0.05046 0.413246 -3.32391 0.354529 -0.306459 -0.0602513
2 1 0.0240775 0.0250106 -0.00247228 0.813964 -3.31946 0.329385 -0.138616 0.56151
83 1 0.0249007 0.0517626 0.0244267 0.488671 -3.31714 -0.235734 -0.304099 0.0812493
1681 1 0.000145051 0.0517813 0.0509383 0.557644 -3.26356 -0.1497 -0.538946 -0.290073
12 1 0.0995522 0.025036 0.0240446 0.305656 -3.31907 0.081118 -0.0713827 0.286973
87 1 0.075353 0.0490278 0.0235632 0.623638 -3.2698 -0.24083 0.44467 0.306744
1606 1 0.0754515 0.023092 0.0486938 1.38797 -3.33194 -0.288445 0.55636 0.123328
6 1 0.0751599 0.0263462 -0.00151679 0.827287 -3.30272 -0.414227 -0.436163 0.227875
16 1 0.150707 0.026263 0.0245627 0.245631 -3.31688 0.184675 -0.154088 0.195128
1610 1 0.125561 0.0262942 0.0497035 0.398819 -3.33715 -0.289441 -0.512633 -0.0267406
10 1 0.124482 0.0251667 -0.000457315 0.37793 -3.27482 0.0729144 0.259489 0.311681
20 1 0.198271 0.0275815 0.0254899 0.998109 -3.25102 0.611207 -0.235393 -0.218732
15 1 0.176978 0.00143069 0.0259728 0.677197 -3.27238 -0.467727 -0.0341682 -0.133913
1697 1 0.200406 0.0517587 0.0495659 0.452266 -3.3056 -0.0140478 -0.229455 0.527521
14 1 0.174861 0.0262439 -5.60102e-05 0.298394 -3.24413 -0.363563 -0.487793 0.354569
24 1 0.250443 0.0262836 0.0248955 0.424396 -3.31941 0.0318002 -0.424998 -0.308269
1618 1 0.225691 0.0261372 0.0491942 0.448102 -3.31155 -0.147553 0.15853 0.28023
1622 1 0.275587 0.0245101 0.050542 0.50784 -3.31888 -0.197864 0.205355 0.0606853
23 1 0.273033 0.000295626 0.0213119 2.22684 -3.25256 0.210927 -0.0867191 0.838021
103 1 0.276343 0.0495182 0.0242552 0.49762 -3.31551 0.184381 0.101479 -0.209759
19 1 0.222706 0.00228352 0.0266577 6.35072 -3.29439 0.652136 -0.173362 -0.612925
28 1 0.299997 0.0238269 0.0253293 0.485982 -3.30471 -0.111034 0.409886 -0.394125
26 1 0.323923 0.025232 -0.00127855 0.537483 -3.30029 0.306072 -0.560171 0.115688
1705 1 0.300143 0.050905 0.0492182 0.368482 -3.34862 -0.29437 -0.175694 -0.103703
32 1 0.350048 0.0258464 0.0246259 0.221766 -3.33638 -0.077478 -0.204485 -0.141278
111 1 0.375082 0.0506705 0.0236485 0.328352 -3.30666 -0.03801 -0.327866 0.0638442
30 1 0.375344 0.0271196 -0.000338731 0.857174 -3.30814 -0.233833 -0.49573 0.186456
36 1 0.401928 0.0257193 0.0242839 0.53947 -3.30909 -0.563619 -0.338459 -0.240374
115 1 0.425031 0.050913 0.0250854 0.526392 -3.22864 0.466582 -0.340243 -0.612174
33 1 0.40063 -0.00104888 -0.00033271 0.343067 -3.30088 -0.0805462 0.209406 0.540513
113 1 0.400752 0.0493757 -0.00233258 0.790661 -3.34467 0.176666 0.32168 0.213545
40 1 0.450813 0.0248765 0.0247659 0.224369 -3.33205 -0.0808315 0.194644 -0.15144
119 1 0.476185 0.0487279 0.0238917 0.583026 -3.35624 -0.13224 0.110092 0.204368
1717 1 0.449611 0.0494626 0.0504115 0.462555 -3.33512 0.117511 0.0520903 -0.255383
44 1 0.500011 0.0221834 0.0238646 1.26401 -3.26349 0.00313973 0.574094 0.115203
121 1 0.500678 0.0496855 0.000154855 0.430281 -3.28329 -0.299453 -0.128972 -0.426038
48 1 0.549342 0.0248181 0.0242908 0.416786 -3.37155 0.197748 -0.0898568 0.457589
1642 1 0.525179 0.0232798 0.0506145 0.862943 -3.32533 0.0593607 0.468495 -0.408325
52 1 0.602157 0.0259476 0.0251484 0.512681 -3.38475 -0.198416 -0.322292 0.0773395
47 1 0.573823 -0.000827381 0.0238929 0.889753 -3.34681 0.409498 0.390043 0.119801
1646 1 0.576147 0.0256305 0.0510505 0.78494 -3.22032 -0.086144 -0.621296 -0.890001
56 1 0.649892 0.0245033 0.0237861 0.671992 -3.33249 0.431765 0.503169 0.188067
1653 1 0.652232 0.000739467 0.050445 0.626658 -3.29847 -0.101847 -0.174838 0.0712047
131 1 0.626697 0.0505878 0.0249285 0.45413 -3.35877 -0.18577 0.0680904 0.0603995
50 1 0.62528 0.0281016 -0.00159394 1.40065 -3.27144 0.148169 -0.691548 0.388766
55 1 0.67603 -0.00139813 0.0243822 0.716196 -3.26796 -0.526029 0.630408 0.424603
60 1 0.700104 0.0237819 0.024707 0.574147 -3.32839 -0.00394248 0.616705 0.0381967
1657 1 0.702015 0.000335795 0.0501828 0.492328 -3.3148 -0.519673 -0.00915601 0.381326
1654 1 0.675685 0.0255773 0.0500615 0.278675 -3.35707 0.157019 -0.057514 0.00885448
1658 1 0.724562 0.0254773 0.0495293 0.537627 -3.31893 -0.0177694 0.325533 0.355775
64 1 0.749906 0.0264828 0.0265577 0.622978 -3.34894 0.0286174 -0.0627516 -0.512777
143 1 0.776504 0.0504284 0.0269088 0.854307 -3.33514 -0.179422 0.340381 -0.53538
59 1 0.72483 0.000760803 0.0256729 0.323878 -3.25762 -0.0971858 -0.23977 -0.354929
139 1 0.725629 0.0520412 0.0252701 0.788991 -3.29162 -0.0741086 -0.705424 0.0699786
141 1 0.751079 0.0515443 -0.000724249 0.875264 -3.36268 0.0226316 -0.500587 0.195259
63 1 0.774241 0.000230258 0.0257118 0.232915 -3.34592 0.0515488 0.165552 -0.0642257
1741 1 0.749372 0.0506581 0.0505567 0.445424 -3.31377 0.190112 0.0597086 0.0414146
58 1 0.726247 0.025084 -0.00124018 1.16989 -3.27652 -0.58462 0.518282 0.608651
61 1 0.746739 0.000575461 0.00111244 1.083 -3.31541 0.752268 -0.576311 -0.373993
68 1 0.802354 0.0268232 0.02353 1.05024 -3.25119 -0.212399 -0.343434 0.463722
147 1 0.827626 0.0509677 0.0231131 0.417457 -3.33044 -0.0601251 0.152677 0.111293
72 1 0.85013 0.0249832 0.0236091 0.269407 -3.26358 0.0151699 0.0343908 0.448297
149 1 0.85243 0.0503376 -0.0027168 1.00855 -3.25916 -0.663285 0.433338 0.548593
70 1 0.873702 0.025071 -0.000503255 0.537847 -3.29173 0.748155 -0.298867 -0.0370749
1670 1 0.874696 0.0237368 0.05059 0.570053 -3.35253 0.0653141 0.233963 -0.191814
76 1 0.900053 0.0247596 0.0259343 0.779763 -3.34467 -0.0882934 0.175365 -0.265245
1674 1 0.923504 0.024947 0.0507654 1.01953 -3.31341 0.267143 0.124398 -0.519855
75 1 0.923516 -0.00192156 0.0239173 1.07636 -3.25203 0.469899 0.745657 0.309929
73 1 0.899454 -0.000577408 -0.000666975 0.417351 -3.32289 -0.335367 0.456205 0.0746547
4 1 1.00118 0.0268759 0.0254606 0.757501 -3.30111 -0.171026 -0.0849863 -0.429687
80 1 0.950331 0.022196 0.0251715 2.20126 -3.30998 -0.752561 0.85189 0.200281
159 1 0.974801 0.0508679 0.0240258 0.371281 -3.32515 0.024842 0.0219007 0.0420032
79 1 0.976156 0.0013208 0.026611 1.21125 -3.28762 0.182527 -0.373204 -0.519363
157 1 0.951269 0.0492058 -0.00122765 1.14418 -3.2173 -0.385326 0.853071 0.0131866
1678 1 0.975481 0.0275714 0.0480291 1.60105 -3.30262 -0.14732 -0.28962 0.620676
81 1 0.999058 0.0486853 -0.000670403 0.806607 -3.32986 -0.0860605 0.441675 0.116942
1685 1 0.0506559 0.0490369 0.0511326 1.41845 -3.34773 0.048468 0.257708 -0.385259
1682 1 0.0222436 0.0757242 0.0502465 1.20555 -3.25803 0.865548 0.0413266 -0.0878679
88 1 0.0486033 0.0749743 0.0251265 0.447854 -3.3022 0.0502687 0.176245 -0.0865854
84 1 0.000601972 0.0775611 0.0250516 0.570312 -3.28896 -0.0595343 -0.529069 -0.290316
1761 1 0.0012241 0.103592 0.0495799 1.71442 -3.30648 -0.378375 -0.405325 -0.210075
163 1 0.0249811 0.101932 0.0233436 0.322648 -3.37059 0.0602995 0.157221 0.255261
161 1 -0.000201672 0.103164 -0.00155936 1.14466 -3.28666 0.0131675 -0.473541 0.284781
1689 1 0.0984008 0.0502593 0.0492177 0.664372 -3.33412 -0.0133363 -0.251908 -0.0712285
92 1 0.0982242 0.0745746 0.0237584 0.252511 -3.3271 0.357815 0.196005 0.24955
167 1 0.0737868 0.101183 0.0238198 0.252578 -3.33773 0.0551459 -0.0724854 0.142771
1686 1 0.0729572 0.0752402 0.0480554 0.9842 -3.31394 0.536623 0.0186337 0.379006
91 1 0.125426 0.0488495 0.0233011 0.888748 -3.24652 -0.596329 0.0125225 0.3548
93 1 0.150794 0.0511719 -8.67572e-05 0.753717 -3.33023 -0.237689 -0.100861 -0.251329
96 1 0.146306 0.0734608 0.0249202 2.49823 -3.30923 0.80713 0.905473 -0.133364
1690 1 0.123124 0.072663 0.0489189 1.27864 -3.31407 0.26725 0.698895 0.0855706
1693 1 0.149171 0.0492872 0.0502045 0.471127 -3.26514 0.405163 0.400546 -0.291836
95 1 0.174543 0.0511056 0.0259228 0.617403 -3.29873 -0.332177 0.257212 -0.305436
100 1 0.200356 0.0730988 0.0260052 1.20856 -3.33536 -0.100177 0.795381 -0.491608
1694 1 0.172318 0.0768431 0.0493576 1.63103 -3.37957 0.161231 -0.343318 -0.0510144
99 1 0.225765 0.0500893 0.0255864 0.434722 -3.28544 -0.233101 0.0173971 -0.34012
104 1 0.250784 0.0744149 0.0232886 0.921052 -3.2492 0.0130488 0.209787 0.41311
1781 1 0.247797 0.101433 0.0505514 1.23639 -3.32847 0.20522 0.0631021 0.125183
1701 1 0.25237 0.0496584 0.0479485 1.37058 -3.29839 -0.202547 0.264312 0.767212
181 1 0.250243 0.100527 -0.000200316 0.522719 -3.26311 -0.0719721 -0.416406 -0.116648
107 1 0.325839 0.0510071 0.0256889 0.760402 -3.29584 -0.422475 -0.302192 0.0807299
108 1 0.300486 0.0766671 0.024382 0.557905 -3.34027 -0.536523 -0.280833 0.10811
1785 1 0.301275 0.10182 0.0510358 1.15407 -3.29088 -0.321887 -0.429117 -0.409086
112 1 0.350167 0.0751836 0.0257859 0.713594 -3.33113 0.0725289 0.296664 -0.30628
191 1 0.375506 0.101539 0.025988 0.978375 -3.25967 -0.303042 -0.33846 -0.598817
1709 1 0.351111 0.0492927 0.0498408 0.66277 -3.31474 -0.36255 0.512882 -0.185307
1710 1 0.37784 0.0742448 0.0473391 2.02549 -3.33595 -0.45022 0.049354 0.602537
109 1 0.347592 0.0497667 0.000442853 1.15742 -3.29753 0.498848 -0.0122028 -0.616258
110 1 0.37394 0.0741096 -0.00163824 0.725331 -3.37104 -0.159608 0.219765 -0.0314611
116 1 0.400079 0.0730237 0.0223397 1.7843 -3.25269 0.0920217 0.70375 0.0268577
195 1 0.427106 0.0985123 0.0246577 1.34683 -3.312 -0.644727 0.301712 0.142976
1714 1 0.422953 0.07689 0.0502657 2.42377 -3.33894 0.318251 -0.463283 -0.304666
120 1 0.450024 0.0731348 0.0255963 0.958116 -3.32211 0.446178 0.432392 -0.060621
199 1 0.476004 0.101356 0.0232152 1.6674 -3.27918 -0.252287 -0.626147 0.641699
197 1 0.450208 0.100371 -0.000134158 0.301344 -3.27635 0.308592 -0.117466 -0.0687218
124 1 0.500511 0.0744442 0.0261504 0.449082 -3.30015 -0.436048 0.0753474 0.00109331
123 1 0.524415 0.0498969 0.0243624 0.475962 -3.32726 0.296476 -0.301592 0.579299
128 1 0.55068 0.0749766 0.0249549 0.312786 -3.32482 0.320895 -0.120472 -0.00389462
125 1 0.551234 0.0487099 1.46118e-05 0.385549 -3.29558 -0.282239 0.0772623 0.0964341
1805 1 0.551672 0.0993258 0.0510342 0.494185 -3.2812 -0.423305 0.176777 -0.158128
205 1 0.549522 0.09855 0.00138213 0.529185 -3.35295 -0.144415 0.277424 -0.13506
127 1 0.574703 0.0496207 0.0257393 0.320895 -3.34 0.0493516 0.0485857 -0.142826
132 1 0.600398 0.0758145 0.0227106 1.31134 -3.33291 -0.462936 -0.0830874 0.905445
126 1 0.574082 0.0732728 -0.000875364 1.02482 -3.27299 0.28052 0.621319 0.464186
207 1 0.576328 0.101007 0.025231 0.882021 -3.35916 -0.280489 -0.272177 -0.16494
1726 1 0.57467 0.0748036 0.0511508 0.525677 -3.30204 0.60272 0.0418362 -0.532642
209 1 0.600841 0.10067 -0.00136876 0.714275 -3.33172 -0.44296 0.174758 0.266268
136 1 0.650154 0.0772458 0.024844 0.855145 -3.31558 0.192062 -0.584576 -0.248427
1730 1 0.624783 0.0738598 0.0493358 0.725499 -3.36294 -0.15462 0.266405 -0.0161726
130 1 0.624029 0.0768312 0.000421825 0.658671 -3.29275 0.546253 -0.417646 -0.393816
135 1 0.675259 0.0505989 0.0240674 0.275151 -3.30999 -0.379477 -0.369258 -0.0183723
140 1 0.698831 0.0753979 0.0244708 0.724032 -3.30917 0.473855 0.276905 0.341582
1817 1 0.701366 0.100965 0.050374 0.315971 -3.35629 -0.215317 -0.364826 -0.161692
134 1 0.676516 0.0731359 -0.000340177 1.06974 -3.33126 -0.310526 0.659171 -0.152098
144 1 0.750134 0.074614 0.023905 0.850972 -3.32571 0.718584 0.445186 0.561997
1738 1 0.725367 0.0755524 0.051157 0.382794 -3.34807 0.234193 -0.0153878 -0.48997
142 1 0.777596 0.0750698 -0.000280544 0.58535 -3.32656 -0.487083 0.259251 0.101169
138 1 0.725077 0.0749348 0.00156097 0.616953 -3.29731 -0.0496087 0.101463 -0.617397
148 1 0.802291 0.0755141 0.0240048 0.557429 -3.32962 -0.094963 -0.214563 0.530038
225 1 0.803587 0.0998086 0.00219442 1.89249 -3.22332 -0.34062 0.21172 -1.07596
227 1 0.828811 0.100877 0.0255 1.37367 -3.29821 -0.203983 -0.163981 -0.0956325
1825 1 0.799272 0.100887 0.0495946 0.931304 -3.30118 0.369054 -0.2427 0.0682886
146 1 0.826369 0.0758339 -0.00174223 0.414354 -3.37673 0.24909 -0.293161 0.0209783
151 1 0.874196 0.049555 0.0229233 1.24735 -3.26383 0.139044 0.111116 0.645135
152 1 0.852032 0.0754904 0.0235976 0.307182 -3.30824 -0.35496 -0.168345 0.117376
1750 1 0.875064 0.078401 0.0497914 1.46036 -3.31082 0.0284877 -0.728137 0.136767
1829 1 0.849076 0.100553 0.0525013 2.09626 -3.18041 0.74075 0.392119 -0.8099
155 1 0.926956 0.0509614 0.0217632 2.83495 -3.27984 -0.193258 -0.120007 0.806717
156 1 0.901424 0.0762804 0.0260973 0.907418 -3.30288 -0.266073 -0.486922 -0.245302
1754 1 0.925991 0.0771129 0.0508795 0.679338 -3.27027 -0.363947 -0.469837 0.0297824
1833 1 0.900996 0.100932 0.0497075 0.20602 -3.30917 -0.131725 0.29113 0.355077
154 1 0.926444 0.0787143 -2.53779e-05 2.16794 -3.28516 -0.304382 -0.847353 -0.0197685
160 1 0.950346 0.075029 0.025656 0.694706 -3.32679 0.0877882 0.266 -0.437352
158 1 0.975941 0.0768362 -0.000766822 0.610404 -3.34353 -0.100353 -0.34802 0.207654
237 1 0.951485 0.100784 -6.4029e-05 0.296437 -3.30787 0.36437 0.315117 0.0541736
168 1 0.0512909 0.126266 0.0244936 0.43186 -3.31661 -0.550239 -0.31299 -0.197135
1762 1 0.0265654 0.126569 0.0499227 0.549458 -3.29841 0.194828 -0.269478 -0.126127
164 1 8.44621e-05 0.127367 0.0240095 0.351133 -3.2703 0.419612 -0.485174 -0.160709
1765 1 0.0496435 0.0998705 0.0499016 0.378279 -3.34635 -0.00896589 0.414057 -0.106476
165 1 0.0490775 0.0993375 -0.000977898 0.609849 -3.27025 0.135937 0.469764 0.385294
172 1 0.099999 0.127294 0.0245656 0.756442 -3.29166 -0.0605788 -0.333092 -0.348211
1766 1 0.0756934 0.126155 0.04869 0.283077 -3.34927 -0.22472 -0.117002 0.426703
171 1 0.123154 0.101649 0.0245328 0.752802 -3.2852 0.0708825 -0.723529 -0.622135
176 1 0.149248 0.124006 0.024029 0.91384 -3.26225 0.513003 0.775854 -0.479093
251 1 0.126528 0.151693 0.0237186 0.656215 -3.34206 -0.28847 -0.388968 0.0262508
1773 1 0.149544 0.102091 0.0470594 2.0532 -3.26443 0.080393 -0.917365 0.626626
1770 1 0.125358 0.125128 0.0470075 0.615252 -3.23621 -0.311771 0.424995 0.836624
175 1 0.177311 0.100377 0.025206 1.55172 -3.32251 -0.465815 -0.310094 -0.216201
180 1 0.200217 0.125396 0.0229062 0.66692 -3.28318 -0.236106 -0.00827676 0.333261
1774 1 0.175741 0.124573 0.0483365 0.617736 -3.34566 0.059099 0.307181 0.171261
257 1 0.199288 0.15065 -0.000977968 0.355264 -3.30891 0.0820729 -0.27875 0.0969625
1777 1 0.19975 0.0999265 0.05155 1.16206 -3.2513 0.154975 -0.243617 -0.890268
179 1 0.225826 0.10039 0.024215 0.660423 -3.34537 -0.228819 -0.284628 0.574495
183 1 0.272816 0.100178 0.024354 0.962348 -3.34911 0.601221 0.00583333 0.283703
184 1 0.24952 0.126142 0.0270546 1.19952 -3.29151 -0.375748 -0.103015 -0.246849
259 1 0.223394 0.150816 0.0245814 0.596035 -3.34356 0.614847 -0.132615 0.0386839
263 1 0.271734 0.151 0.0247786 1.27868 -3.29432 0.285614 -0.154762 -0.0818395
1782 1 0.275634 0.124281 0.0497824 0.588006 -3.2751 -0.471982 0.00636664 0.475079
1778 1 0.221471 0.124909 0.049651 1.40651 -3.31615 0.505324 0.326169 0.0502517
187 1 0.324655 0.100572 0.0232943 0.723835 -3.28555 0.316095 -0.155419 0.395447
188 1 0.299561 0.124442 0.0267476 1.03106 -3.27996 -0.152214 -0.0385127 -0.806452
185 1 0.301233 0.099185 -0.000902579 1.02207 -3.29046 -0.223744 0.324832 0.251544
1789 1 0.350001 0.100704 0.0495333 0.522214 -3.35085 0.354669 -0.226286 0.010077
192 1 0.351028 0.124815 0.0246589 0.452117 -3.31066 0.297394 0.363469 -0.0317708
1790 1 0.375901 0.127803 0.0521195 2.10153 -3.28258 -0.498065 -0.583832 -0.618984
196 1 0.40125 0.124747 0.0262943 0.481893 -3.33577 -0.0898785 0.0622134 -0.437273
194 1 0.426138 0.126314 -0.000366717 0.686646 -3.29356 -0.271347 -0.515608 0.216788
1794 1 0.425335 0.124802 0.0514722 0.568454 -3.25296 -0.0489846 -0.403794 -0.545959
200 1 0.449952 0.123604 0.0252524 0.333404 -3.31597 -0.102452 0.404268 -0.0455483
279 1 0.474657 0.149538 0.0258382 0.236045 -3.36082 -0.0336265 0.0868336 -0.150499
198 1 0.475544 0.125634 -0.000371471 0.41481 -3.30348 0.052563 0.0860908 0.391338
277 1 0.449334 0.150263 0.0012868 0.514526 -3.34617 0.416316 0.17832 -0.274275
203 1 0.524848 0.0987661 0.0265512 0.596303 -3.27752 0.0340551 0.387424 -0.605113
204 1 0.501408 0.124993 0.0257721 0.503467 -3.31948 -0.185846 -0.252964 -0.557485
283 1 0.524728 0.149002 0.0274813 1.17227 -3.23754 0.224556 0.437221 -0.716129
1802 1 0.524779 0.124034 0.0508436 0.330924 -3.2865 0.225831 -0.238441 0.421519
208 1 0.547615 0.124454 0.0259443 0.702908 -3.3306 0.510217 -0.0537933 -0.296445
1885 1 0.549252 0.148639 0.0514172 0.183847 -3.28867 0.0261136 0.132157 0.352132
281 1 0.499599 0.151263 0.000794481 0.538108 -3.28239 -0.218128 -0.66644 -0.018083
202 1 0.525449 0.125978 -0.00137936 1.53993 -3.31391 -0.587077 -0.774817 0.323098
212 1 0.600442 0.126479 0.0241749 0.946406 -3.27712 -0.13171 -0.527886 0.158296
287 1 0.574483 0.149863 0.0281169 1.32369 -3.33879 -0.388277 0.059767 -0.923526
289 1 0.600048 0.149105 0.000944748 0.584739 -3.35578 -0.305585 0.410142 -0.449681
211 1 0.62591 0.100341 0.0257719 0.541314 -3.30402 -0.525303 0.20194 -0.195846
1813 1 0.650326 0.0997729 0.0503611 0.326107 -3.29688 -0.162989 0.298338 -0.162837
1810 1 0.624089 0.125078 0.0491647 0.332999 -3.30356 0.132745 -0.243487 0.0660487
216 1 0.651072 0.123728 0.0247576 0.532322 -3.33633 -0.134932 0.518282 -1.34116e-05
213 1 0.650656 0.100092 -0.000387198 0.203889 -3.39 -0.00859439 0.0340764 -0.0993288
293 1 0.650893 0.151402 -0.0017584 1.15476 -3.27519 -0.487935 -0.551275 0.788808
215 1 0.675904 0.100719 0.0259448 0.322376 -3.3207 0.152793 -0.0181437 -0.203966
217 1 0.701212 0.0992649 -0.000122261 0.25856 -3.32032 -0.227274 0.10743 0.281914
1814 1 0.67585 0.126235 0.0508025 0.784491 -3.31849 -0.293278 -0.475685 -0.544079
220 1 0.700947 0.1259 0.0251092 0.24633 -3.29757 -0.155914 -0.329345 0.203822
297 1 0.700103 0.150524 -0.000581903 0.407205 -3.34973 0.114241 0.0533813 -0.140828
219 1 0.725653 0.100688 0.0258735 0.221243 -3.34677 -0.159564 -0.246051 -0.033756
223 1 0.778309 0.100932 0.0236956 1.42727 -3.25182 -1.20913 -0.594794 0.297033
224 1 0.75092 0.124939 0.0257467 0.301386 -3.2884 -0.24695 -0.0373237 -0.329036
221 1 0.750105 0.099914 0.00156644 0.400361 -3.35526 0.235939 -0.0112773 -0.183083
218 1 0.72516 0.125426 0.00145617 0.301543 -3.29163 -0.079929 -0.282598 -0.369016
222 1 0.776211 0.125868 0.000799906 0.486725 -3.34973 -0.0525556 -0.283169 -0.190034
228 1 0.801772 0.123586 0.024335 1.16105 -3.25408 -0.0477867 0.943636 0.392157
307 1 0.826265 0.151183 0.0241029 0.41131 -3.27511 -0.366281 -0.300368 0.706463
231 1 0.87447 0.100085 0.0242539 0.863591 -3.2928 0.19126 0.350229 0.4402
229 1 0.852284 0.100917 -0.000812317 0.361221 -3.29916 -0.716069 -0.147009 0.231239
232 1 0.851943 0.12587 0.023472 0.94039 -3.31103 -0.298827 0.0112298 0.556692
235 1 0.925127 0.0993677 0.0263286 0.807512 -3.24948 0.540435 0.51684 -0.428258
236 1 0.900847 0.125014 0.0243839 0.369928 -3.34664 -0.192331 -0.082331 0.507879
1834 1 0.92836 0.124622 0.0486603 1.82918 -3.30792 -0.810291 0.248763 0.662861
234 1 0.925833 0.123391 0.00121558 1.05041 -3.28884 0.333911 0.192631 -0.423744
239 1 0.97705 0.100754 0.0235975 0.660089 -3.32302 -0.440527 0.250753 0.362006
240 1 0.950837 0.125905 0.0251975 0.119469 -3.30258 0.0959839 -0.0984148 -0.589976
1838 1 0.974668 0.126258 0.0487951 0.464867 -3.32358 0.0141546 -0.150755 0.409217
243 1 0.0253322 0.150471 0.0241653 0.295386 -3.34944 0.0672525 0.249074 -0.194364
248 1 0.050594 0.175098 0.0243874 0.31237 -3.32451 -0.128646 0.0486453 0.104293
1845 1 0.0507488 0.151199 0.0479915 0.423358 -3.30731 0.00171722 0.0835776 0.27262
1842 1 0.0239536 0.176708 0.0492694 1.12953 -3.35388 0.314729 -0.414495 0.0506555
242 1 0.0264928 0.175551 -0.00155825 0.161043 -3.32135 -0.168487 0.0457544 0.189379
247 1 0.0747426 0.150015 0.0225642 0.542825 -3.2338 0.413808 0.448902 0.617968
252 1 0.0996067 0.175196 0.0223485 0.907435 -3.31419 0.0714194 -0.283427 0.522882
246 1 0.073653 0.175412 -0.0011796 0.555873 -3.25872 0.751527 -0.225305 0.0839705
1849 1 0.100746 0.151358 0.0492227 0.363156 -3.38645 0.0191649 -0.053107 0.00676009
1846 1 0.0753441 0.176971 0.0492343 0.359741 -3.29136 0.128439 -0.346754 -0.195443
256 1 0.150461 0.174835 0.0247784 0.465898 -3.31922 -0.201629 0.521996 -0.383666
331 1 0.12239 0.201379 0.0250731 1.38664 -3.29769 0.857193 -0.274849 -0.382237
1853 1 0.150587 0.14991 0.0495561 0.316741 -3.27843 0.09845 -0.060803 -0.503188
1850 1 0.125655 0.175856 0.0493205 0.146752 -3.3194 0.210018 -0.253996 -0.104091
255 1 0.175295 0.149472 0.0239357 0.375799 -3.34017 -0.424742 0.00674735 -0.177011
260 1 0.199212 0.175243 0.0237589 0.326232 -3.25167 0.298633 0.115284 0.208423
337 1 0.199962 0.199092 -0.00172769 0.414922 -3.30474 0.206128 0.535339 -0.0795622
335 1 0.176223 0.201039 0.0242817 0.392003 -3.31564 -0.0867369 -0.11464 -0.0393674
1861 1 0.249036 0.148369 0.0526538 1.88576 -3.30419 0.0278094 0.235192 -0.516262
264 1 0.249055 0.176601 0.0229715 1.26326 -3.30745 0.0960277 -0.483048 0.287706
1858 1 0.225002 0.174435 0.0514892 0.913997 -3.35951 0.260916 0.169781 -0.476205
343 1 0.274621 0.200087 0.024797 0.240933 -3.28278 0.172597 0.14776 0.0413715
262 1 0.274938 0.176425 -0.00203202 0.703916 -3.31899 -0.196068 -0.183903 0.206066
261 1 0.248307 0.148965 -0.000996755 0.78339 -3.34161 0.0632605 0.416076 0.184316
258 1 0.224258 0.173877 -0.00133668 0.516434 -3.34198 0.149883 0.313334 -0.194419
267 1 0.324361 0.148297 0.0244777 0.59868 -3.3061 0.227296 0.70176 -0.0294951
268 1 0.297441 0.174405 0.0240636 0.521961 -3.32433 0.433202 -0.0504421 0.0883657
347 1 0.322422 0.199842 0.0249367 0.749977 -3.29314 0.41893 -0.534554 0.262915
266 1 0.323764 0.174352 -0.000398725 0.323009 -3.32657 -0.102197 0.0914798 0.371338
345 1 0.299464 0.201013 0.000419622 0.454456 -3.26863 0.135681 -0.500265 -0.479143
271 1 0.376456 0.150888 0.0251929 0.409141 -3.38007 -0.14242 -0.495119 0.0181359
272 1 0.349778 0.173509 0.0253381 0.352571 -3.37327 -0.149392 0.264821 -0.193111
351 1 0.375202 0.201682 0.0263529 1.34823 -3.2334 -0.323066 -0.959871 -0.0293942
269 1 0.35061 0.14999 -0.000970706 0.462664 -3.31046 -0.048001 -0.0593131 0.382975
275 1 0.424524 0.149037 0.0255264 0.357371 -3.31916 0.314157 0.214993 0.0204289
276 1 0.399652 0.175724 0.0262404 0.415504 -3.27189 -0.209944 -0.321432 -0.619353
355 1 0.423382 0.200066 0.0245306 0.481477 -3.26279 0.551882 -0.0651812 0.27806
273 1 0.401497 0.149797 -0.000532342 0.433953 -3.27313 -0.328407 0.156606 0.517953
353 1 0.397909 0.199993 0.00117793 0.623937 -3.28458 0.107296 -0.168765 -0.496693
274 1 0.424936 0.174912 -0.000808906 0.668355 -3.31891 -0.127027 0.0344021 0.410113
280 1 0.448284 0.174717 0.0251638 0.741738 -3.36449 0.400601 -0.00352471 0.28719
278 1 0.475517 0.176686 0.000502127 0.82146 -3.28441 0.0396132 -0.728683 -0.154185
284 1 0.500208 0.175255 0.0246372 0.180581 -3.30547 0.0196653 -0.0992701 0.331959
288 1 0.549541 0.175452 0.0256377 0.469735 -3.32352 0.0334832 -0.402826 -0.0895233
363 1 0.52583 0.201054 0.0243925 0.863497 -3.27231 -0.561471 -0.662395 0.128913
1889 1 0.599219 0.14778 0.0502065 0.967397 -3.26569 -0.0112956 0.586398 0.234968
367 1 0.573439 0.201004 0.0243398 0.635962 -3.28801 0.10901 -0.330257 0.127093
1886 1 0.573637 0.174066 0.0516929 0.534897 -3.33945 0.228177 0.0154243 -0.136067
292 1 0.600835 0.174224 0.0243652 0.806478 -3.3388 -0.674451 0.140806 0.0294775
291 1 0.626141 0.149813 0.0248487 0.326957 -3.261 -0.215674 -0.44256 -0.446104
1893 1 0.648537 0.149681 0.0495833 0.476406 -3.29557 0.583027 -0.235052 0.0409241
371 1 0.624061 0.200981 0.0250886 0.653908 -3.35639 0.0864261 -0.103105 -0.11565
296 1 0.649868 0.173 0.0251251 0.763723 -3.28729 0.247865 0.610589 -0.168488
290 1 0.625383 0.175428 -5.8696e-05 0.367766 -3.32241 -0.471969 -0.355791 0.175948
295 1 0.675498 0.149826 0.0252976 0.237598 -3.35492 -0.102921 -0.118801 -0.119645
300 1 0.70157 0.174042 0.0245588 0.387811 -3.33815 -0.0576963 0.351339 -0.139114
377 1 0.699239 0.198838 -0.000793251 0.876765 -3.34647 0.381675 0.264383 0.311021
299 1 0.725131 0.150104 0.0235217 0.781615 -3.27498 0.231461 -0.00577895 0.438532
303 1 0.775641 0.149736 0.0247669 0.382992 -3.32207 0.114251 -0.134573 0.145193
304 1 0.751658 0.173296 0.0252411 1.23011 -3.23435 -0.417789 0.341973 -0.734212
1902 1 0.772975 0.177079 0.0489569 1.78388 -3.25692 1.05112 -0.333874 0.554943
379 1 0.727165 0.201501 0.0244519 1.03763 -3.30974 -0.205064 -0.496361 -0.394822
383 1 0.774522 0.199801 0.0236617 0.539269 -3.39018 0.258127 0.335021 0.152466
302 1 0.776133 0.175467 -0.000487198 0.315599 -3.31935 -0.104498 -0.136577 -0.0299378
298 1 0.728155 0.177517 -0.000476035 2.55925 -3.2648 -0.943621 -0.842927 0.429022
381 1 0.751954 0.199291 -0.00240024 1.00115 -3.25688 0.369266 0.688144 0.309643
308 1 0.80004 0.173701 0.0253894 1.07404 -3.31326 -0.171585 0.524801 -0.125435
1905 1 0.799708 0.150328 0.0505265 0.674987 -3.3284 0.229301 0.150705 -0.633746
306 1 0.827361 0.176698 -0.00148807 1.57177 -3.27073 -0.919519 -0.143638 0.303022
311 1 0.876478 0.150491 0.0244021 0.521214 -3.31943 -0.146311 -0.245849 0.115424
312 1 0.85077 0.17606 0.0238854 0.356993 -3.26798 0.0943409 -0.375874 -0.0370641
315 1 0.924587 0.151233 0.0270892 1.7144 -3.25122 0.428686 -0.338084 -0.540006
1913 1 0.900964 0.150706 0.0500343 0.400044 -3.2657 -0.229012 -0.355777 -0.357184
316 1 0.900106 0.175024 0.0233607 0.749775 -3.27825 0.265808 0.0760795 0.129294
319 1 0.976543 0.15069 0.0238858 0.349578 -3.29167 -0.115267 0.28232 0.166153
244 1 0.999686 0.17648 0.0242862 0.727804 -3.34359 0.277578 -0.0673497 -0.318034
320 1 0.95189 0.173779 0.0254659 1.15082 -3.33169 -0.180879 0.416467 -0.0720127
318 1 0.975267 0.175823 -0.00141754 0.312273 -3.31609 -0.000159267 -0.202772 0.20637
399 1 0.972291 0.200381 0.0254753 1.73461 -3.28407 1.00407 0.214876 -0.679972
1925 1 0.0506038 0.200891 0.0515307 0.931708 -3.32456 -0.116681 0.305921 -0.446499
323 1 0.028119 0.200982 0.0232613 1.29505 -3.34318 -0.405718 0.0493289 0.223155
325 1 0.0511057 0.199965 -0.0012142 0.443631 -3.23369 -0.483368 0.249363 0.313311
328 1 0.052539 0.227091 0.0258334 1.28094 -3.30848 -0.596746 -0.126825 0.0824327
403 1 0.0236814 0.251861 0.0242103 0.468949 -3.33783 0.328925 -0.234517 0.151225
322 1 0.0256905 0.226131 -4.91901e-05 0.222551 -3.35344 -0.125871 0.0734088 0.133011
324 1 -0.000723644 0.226646 0.0243584 0.426653 -3.35596 -0.0495787 -0.244291 -0.161861
405 1 0.04977 0.252902 0.000171965 0.710937 -3.32855 -0.235937 -0.237171 -0.0826562
327 1 0.07548 0.199408 0.0253869 0.648212 -3.3647 -0.0851094 0.590384 -0.114072
332 1 0.0992009 0.227053 0.0266921 1.04808 -3.31042 -0.16803 -0.178849 -0.321345
407 1 0.0752265 0.252329 0.024483 0.550787 -3.29136 -0.0570187 -0.000400929 0.416748
1929 1 0.102248 0.199946 0.0498644 1.04638 -3.2295 -0.839104 0.449322 0.172489
336 1 0.150779 0.224182 0.0253242 0.596433 -3.29439 -0.454829 0.237676 -0.478223
1933 1 0.150461 0.201014 0.0494319 0.324218 -3.27079 -0.373452 -0.675807 -0.234899
1930 1 0.125768 0.225368 0.0495489 0.41502 -3.28341 0.0434371 0.266258 -0.0465017
340 1 0.201942 0.225324 0.0247336 0.78857 -3.3841 -0.091396 -0.0571613 0.0226929
339 1 0.224303 0.198864 0.0240587 0.461284 -3.28959 -0.134145 0.263419 0.293812
344 1 0.250069 0.223853 0.0272467 1.17992 -3.29245 0.283338 0.327214 -0.745348
419 1 0.228401 0.249917 0.0245756 1.30024 -3.32076 -0.47492 -0.279892 0.30647
1938 1 0.226564 0.224599 0.0500367 0.381489 -3.31908 -0.698071 0.179557 0.367061
2021 1 0.251078 0.250066 0.0531176 1.19881 -3.25869 -0.201702 -0.303437 -0.794668
1942 1 0.276674 0.224751 0.0516219 0.588435 -3.31561 -0.220337 -0.013454 -0.479357
338 1 0.226134 0.222546 -0.00129597 1.65022 -3.2632 -0.593484 1.11019 0.454844
342 1 0.276522 0.224541 -0.000714261 0.744399 -3.32918 -0.575852 0.285238 0.0715962
348 1 0.300607 0.225109 0.0242641 0.498317 -3.23451 -0.585293 -0.0183989 0.604069
425 1 0.298418 0.25198 0.000381291 1.64305 -3.30689 0.601438 -0.489667 0.145364
346 1 0.324584 0.225268 0.00137823 0.554917 -3.30777 0.385563 0.0954687 -0.726141
352 1 0.349186 0.222874 0.0255045 0.613566 -3.2112 -0.216548 0.368646 0.292687
350 1 0.373526 0.224283 0.00251869 1.42079 -3.24366 0.225757 -0.0903351 -1.03233
356 1 0.399717 0.224805 0.024828 0.574443 -3.23646 -0.0401116 0.249295 0.393809
354 1 0.423298 0.222369 0.000557159 1.04222 -3.30355 0.629257 0.649467 -0.146523
1957 1 0.448615 0.199796 0.0516404 1.09144 -3.34475 0.0536709 0.0843636 -0.548121
359 1 0.476926 0.200296 0.0231779 1.10669 -3.27351 -0.144605 0.175639 0.553944
360 1 0.449619 0.224341 0.0259319 0.445228 -3.33972 -0.1886 -0.0122877 -0.284547
364 1 0.501771 0.225648 0.0243694 0.350763 -3.25552 -0.371065 -0.495319 -0.119718
1958 1 0.474214 0.224924 0.0481225 0.824916 -3.3364 0.195674 -0.018297 0.549103
361 1 0.502661 0.199524 -0.00202288 1.45308 -3.34888 -0.239151 0.381027 0.266925
1965 1 0.550375 0.199259 0.0503658 0.43511 -3.31481 0.130969 0.146208 -0.00837434
2041 1 0.499095 0.249812 0.050642 0.519874 -3.33898 0.216991 0.0218224 -0.265367
1962 1 0.524445 0.224784 0.0494918 0.26689 -3.32771 0.0921685 0.0862348 0.169894
368 1 0.548666 0.224075 0.0245793 0.688123 -3.2392 0.728117 0.613196 0.149706
362 1 0.527664 0.225449 -0.0011342 1.00126 -3.31683 -0.52629 -0.150183 -0.11829
372 1 0.598628 0.225389 0.0241498 0.30231 -3.34142 0.198237 -0.00808332 0.0526773
447 1 0.575738 0.251389 0.0245944 0.528203 -3.32424 -0.232726 -0.338137 0.170323
449 1 0.601191 0.249564 0.000455008 0.646939 -3.36464 -0.361117 0.158631 -0.166795
366 1 0.572759 0.224146 -0.00229407 1.74133 -3.33475 0.216795 0.36383 0.878248
1970 1 0.624515 0.224158 0.0505225 0.664212 -3.31749 0.0303691 0.004219 -0.593634
376 1 0.651619 0.225449 0.0255682 0.561943 -3.35274 -0.503934 -0.512098 -0.167901
451 1 0.626568 0.249596 0.0245601 0.598215 -3.32693 -0.628081 0.0246165 0.190214
2053 1 0.650414 0.25189 0.0488104 0.939199 -3.26395 -0.397177 -0.459675 0.100882
370 1 0.62502 0.2247 -0.000501408 0.40358 -3.34542 0.132653 -0.103274 0.427552
375 1 0.676652 0.199451 0.025691 0.618875 -3.29851 -0.615091 0.0448557 -0.46816
380 1 0.701275 0.223822 0.0250156 0.518418 -3.32883 -0.187812 0.407696 -0.33042