ITEM: TIMESTEP
750
ITEM: NUMBER OF ATOMS
32000
ITEM: BOX BOUNDS pp pp pp
1.6465663525722141e-01 8.0835343364742826e+01
-2.4704861047943893e-01 8.1247048610479283e+01
-2.5423252892942116e-01 8.1254232528929151e+01
ITEM: ATOMS id type xs ys zs c_csym c_peratom fx fy fz
3 1 0.0247964 0.000534289 0.0257538 0.232022 -3.40189 0.0790178 -0.357291 0.0926038
4 1 0.999226 0.026086 0.0248972 0.406161 -3.30408 0.225094 -0.287635 0.396572
8 1 0.0499814 0.0264543 0.0237459 0.972008 -3.26765 -0.0209745 -0.600426 0.541353
83 1 0.0257645 0.049804 0.0252543 0.334319 -3.2741 -0.510451 0.230351 0.130471
1602 1 0.0245623 0.0251096 0.0500961 0.207047 -3.38083 -0.0828827 -0.0611828 0.139758
1685 1 0.0488995 0.0502609 0.0489466 0.632018 -3.32335 0.370873 0.0536639 0.630274
7 1 0.074 0.999567 0.0249446 0.356655 -3.29892 0.429845 0.0883503 -0.075898
12 1 0.0993781 0.02385 0.0234057 0.73011 -3.34919 -0.171436 -0.0285215 0.407915
87 1 0.0753894 0.0493044 0.0253147 0.564413 -3.33205 0.278773 -0.00570994 -0.168754
1606 1 0.0727397 0.0244527 0.0508289 1.03354 -3.32288 0.570169 0.209129 -0.0723269
1689 1 0.0998713 0.0479134 0.0492141 0.411993 -3.29019 -0.508877 0.199828 0.18081
10 1 0.124403 0.0245983 0.000447507 0.236498 -3.33846 0.181652 0.0885505 -0.0808226
16 1 0.150646 0.024667 0.0263377 0.469835 -3.34043 -0.368938 0.393524 -0.25958
91 1 0.122847 0.049292 0.0254681 0.883384 -3.33876 0.636051 0.00106005 -0.368136
1610 1 0.123016 0.0237644 0.0508319 0.84598 -3.29375 0.457441 -0.276228 -0.566831
1613 1 0.149278 0.998967 0.0491533 0.725201 -3.24636 -0.0381455 0.522234 0.414178
1693 1 0.152188 0.0495265 0.0492612 1.67119 -3.26735 -1.02394 0.132141 -0.339705
15 1 0.174661 1.00048 0.0269698 0.566784 -3.3018 0.217016 -0.263421 -0.522111
20 1 0.199664 0.0264241 0.0250687 0.450278 -3.35254 0.234489 -0.414954 0.0548049
95 1 0.176109 0.049937 0.0247306 0.672039 -3.28311 -0.708486 0.101272 -0.415567
1614 1 0.175596 0.0256897 0.0504761 0.337719 -3.27709 -0.156625 -0.0882598 -0.17864
1617 1 0.197734 1.00069 0.050852 0.635949 -3.33197 0.586948 -0.0956395 -0.288364
1697 1 0.199211 0.0523586 0.04872 0.710159 -3.31466 -0.0265739 -0.212398 0.526442
19 1 0.22485 -0.000370104 0.0239175 0.767201 -3.30783 -0.334815 0.258949 0.519567
21 1 0.248725 0.00214367 1.00021 1.04627 -3.30943 0.420755 -0.447924 -0.125266
24 1 0.248378 0.0250406 0.0249096 0.436231 -3.33368 0.433156 0.0545346 0.0771118
99 1 0.22462 0.0513938 0.0268199 0.883148 -3.33919 0.0285739 -0.15552 -0.444939
1618 1 0.224816 0.0247103 0.0503179 0.496349 -3.34961 -0.401203 0.146423 -0.191699
1621 1 0.248908 1.00067 0.0500193 0.256144 -3.34383 0.364325 0.0643109 -0.0774999
1701 1 0.249801 0.0489912 0.0493761 0.559375 -3.33693 -0.00312169 0.162448 0.240043
22 1 0.274729 0.0263723 -0.000554084 0.820865 -3.29132 -0.0682808 -0.705546 0.561159
23 1 0.276455 0.99998 0.0243563 0.88257 -3.31945 -0.763023 0.254474 0.0748325
28 1 0.299596 0.02569 0.0256423 0.480557 -3.32951 0.254733 -0.033397 -0.219671
103 1 0.27543 0.0523128 0.0258197 1.29093 -3.30774 -0.141412 -0.683699 -0.35344
105 1 0.29961 0.0480457 -0.000203675 0.738862 -3.31202 0.220954 0.625148 0.205893
1622 1 0.275453 0.0262474 0.0479709 1.05382 -3.34355 -0.342303 -0.428424 0.417281
1625 1 0.299706 0.999288 0.0485618 0.447392 -3.33658 0.0869817 0.483918 0.217816
1705 1 0.300554 0.049327 0.0511357 1.00903 -3.33089 0.0837118 0.679692 -0.309035
26 1 0.324091 0.0247955 0.00124172 0.499201 -3.33167 0.212895 0.00245454 -0.116899
27 1 0.3253 0.999048 0.0240633 0.620939 -3.31761 -0.167408 0.484012 0.315602
29 1 0.349807 0.000405284 0.000381197 0.233342 -3.3578 0.0619934 -0.21589 0.0128089
32 1 0.350351 0.024866 0.0238328 0.465099 -3.34683 0.253334 -0.204563 0.176684
107 1 0.325097 0.0518718 0.0252172 0.748553 -3.32496 -0.0662825 -0.431343 -0.140352
109 1 0.348503 0.0496639 0.999433 0.462314 -3.35644 0.0663088 0.254303 -0.165266
1626 1 0.326392 0.0263394 0.0476479 1.41992 -3.32313 -0.475709 -0.455661 0.333663
1709 1 0.351051 0.0490141 0.0495782 0.591888 -3.31731 0.168013 0.4609 -0.119109
33 1 0.398705 0.998014 -0.000315912 1.07864 -3.2984 0.467114 0.733734 -0.0842871
36 1 0.398054 0.0251556 0.0240598 0.949568 -3.30351 0.388799 0.162802 -0.211371
111 1 0.372873 0.0504663 0.0235012 1.07437 -3.34719 0.60374 -0.102986 0.0571534
1630 1 0.376998 0.0238139 0.0496114 1.13397 -3.33477 -0.84402 0.279929 0.0282214
1713 1 0.399591 0.0499238 0.0496042 0.246781 -3.34699 0.13072 0.0995755 -0.113104
34 1 0.425034 0.0248261 -0.00122542 0.301692 -3.3157 -0.15598 0.0180324 0.15015
40 1 0.45182 0.0252835 0.0248328 0.739218 -3.31764 -0.449608 0.135275 0.0622374
115 1 0.423945 0.0483601 0.0249395 0.714802 -3.33572 0.289689 0.46537 -0.382896
1634 1 0.425722 0.0257958 0.0484122 0.577196 -3.32523 -0.0525163 -0.550451 0.405965
1637 1 0.450355 0.998205 0.0487593 0.763888 -3.358 -0.0632348 0.563999 -0.197222
1717 1 0.451242 0.0491591 0.0501374 0.301139 -3.30782 -0.402965 0.220871 -0.0148185
1638 1 0.475588 0.0256924 0.0486983 0.578719 -3.3131 0.114214 -0.379211 0.379971
38 1 0.474689 0.0265177 0.000360958 1.20646 -3.30924 0.456159 -0.638575 0.0177112
39 1 0.476882 0.99959 0.0250015 0.64505 -3.34759 -0.137176 0.0730036 0.086031
41 1 0.502225 0.00163205 0.000317206 0.970187 -3.32641 -0.488812 -0.130423 -0.329528
42 1 0.525712 0.0265662 0.000203343 0.730425 -3.33921 0.0245017 -0.203897 -0.119826
44 1 0.50101 0.024147 0.0242616 0.791828 -3.34318 -0.0668767 0.610526 0.350265
119 1 0.47591 0.0507398 0.0268006 1.35482 -3.29252 0.0189699 -0.132877 -0.962026
123 1 0.526667 0.0512781 0.0237242 0.456548 -3.35987 -0.149994 -0.346436 0.193758
1641 1 0.499412 1.0008 0.0526107 1.61225 -3.32879 0.121135 -0.232873 -0.578715
1721 1 0.502249 0.0505845 0.0492396 0.666221 -3.30094 -0.178983 -0.536906 -0.26496
43 1 0.524977 0.000309232 0.0260578 0.283752 -3.30991 0.240112 0.119534 -0.0678693
46 1 0.576455 0.0237001 -0.0013166 0.454101 -3.3133 -0.272727 0.120645 0.121391
47 1 0.573733 -0.000824556 0.0241139 0.628905 -3.32643 0.322622 0.247925 0.121961
48 1 0.551917 0.0257065 0.0238856 0.477117 -3.35879 -0.445289 -0.131821 0.0111124
125 1 0.55175 0.0503971 -0.00147244 0.411268 -3.31255 -0.266495 -0.245134 0.221783
127 1 0.575306 0.0505484 0.0224652 1.06356 -3.27368 0.350987 -0.289564 0.429033
1645 1 0.548973 0.999151 0.0505528 0.904483 -3.31247 0.423328 0.234686 -0.137998
1646 1 0.57486 0.025221 0.0481459 0.673588 -3.35594 0.167519 0.0830526 0.386294
1725 1 0.551322 0.0502572 0.0502291 0.374746 -3.33793 -0.344133 -0.197589 -0.234599
52 1 0.598608 0.025383 0.024258 0.653653 -3.34032 0.219828 -0.085338 -0.0383585
131 1 0.624302 0.0489251 0.0248603 0.386008 -3.36357 0.0600691 0.572278 -0.164272
1650 1 0.624379 0.0249981 0.048352 0.300269 -3.31383 0.283785 0.115575 0.286669
1729 1 0.600417 0.0502791 0.0507942 0.448654 -3.33183 0.00367596 -0.226259 -0.240349
53 1 0.649083 -0.000256472 0.000345036 0.493192 -3.33523 0.0455909 -0.445227 -0.338826
55 1 0.67412 -0.000479308 0.0238436 0.408963 -3.34232 -0.0336893 0.221843 0.410638
56 1 0.648876 0.025941 0.0218005 1.63877 -3.29379 0.301319 -0.367872 0.786162
133 1 0.650157 0.0495598 0.998873 0.489332 -3.33662 -0.157554 0.17254 -0.112058
135 1 0.675845 0.0468609 0.0243427 1.21618 -3.37581 0.0278577 0.453357 0.0790282
1653 1 0.649292 1.00125 0.0488233 0.589043 -3.38309 0.21499 0.108992 0.0268332
1654 1 0.676942 0.0246769 0.0503676 0.757999 -3.35704 -0.439715 -0.0493458 -0.252912
1733 1 0.649929 0.0492674 0.0499952 0.333006 -3.34007 0.172742 -0.228874 -0.111699
58 1 0.72633 0.024368 -0.000262213 0.463912 -3.37671 -0.206321 -0.0760709 0.0415281
60 1 0.701103 0.0222525 0.0238911 0.839922 -3.3368 0.0463114 0.555927 0.364719
139 1 0.726058 0.0491649 0.0272322 1.10134 -3.30104 -0.342719 0.10802 -0.676946
1658 1 0.726888 0.0238492 0.0499776 0.615853 -3.31666 -0.415284 -0.193089 -0.0765701
1737 1 0.701552 0.0483274 0.050046 0.540371 -3.30202 -0.315767 -0.0939923 -0.0632738
63 1 0.775361 -0.000302975 0.0249652 0.383763 -3.38101 -0.0184402 -0.16688 -0.342731
64 1 0.750241 0.0257242 0.0253829 0.818977 -3.32061 0.0160196 -0.663193 -0.349158
143 1 0.775984 0.0483878 0.0243722 0.60647 -3.30823 -0.218362 0.276428 -0.104342
1662 1 0.774696 0.0239443 0.049115 0.46834 -3.33264 0.196652 0.0300961 0.270297
1741 1 0.751161 0.050179 0.049856 0.66077 -3.30073 -0.278413 -0.3634 0.150435
68 1 0.800022 0.0242583 0.0232277 0.564943 -3.32305 -0.187057 -0.167747 0.376798
147 1 0.824981 0.0486043 0.0248697 0.648759 -3.37104 0.189483 0.131034 0.113034
1666 1 0.822139 0.0250208 0.0504922 1.34926 -3.3323 0.55217 0.0304023 -0.196621
1745 1 0.79837 0.0501312 0.0500235 0.628264 -3.29525 0.332242 -0.176854 -0.242373
71 1 0.877042 1.00004 0.0239454 0.832822 -3.3197 -0.322666 -0.203964 0.0849603
72 1 0.850519 0.0206671 0.0258207 3.24867 -3.28661 -0.156945 1.06999 -0.231885
151 1 0.87475 0.0493389 0.0254556 0.384789 -3.35195 0.0819188 0.198948 -0.264995
1669 1 0.849688 0.00101862 0.0505728 0.839943 -3.29301 0.235918 -0.553859 0.0178754
1670 1 0.87519 0.0254163 0.0503203 0.411197 -3.34494 0.0296854 -0.354708 -0.16501
1749 1 0.850075 0.0509307 0.0485254 0.780699 -3.32605 0.0879572 -0.55491 0.106664
74 1 0.924392 0.0241972 0.999101 0.28389 -3.32474 -0.333212 0.248946 -0.161004
75 1 0.924378 0.999769 0.0241618 0.241595 -3.30218 -0.0601419 -0.242028 0.318063
76 1 0.900668 0.0241881 0.0250753 0.271889 -3.30818 -0.38998 -0.0939677 -0.102733
153 1 0.899031 0.0489142 -0.000269509 0.411378 -3.33301 0.288238 0.334203 0.0831653
155 1 0.923069 0.047793 0.0255529 1.14576 -3.30301 0.498944 0.677356 -0.365588
1673 1 0.900635 -0.000497547 0.0498954 0.174062 -3.36776 0.0339623 0.221467 0.0841812
1674 1 0.92549 0.0237573 0.0513777 0.533834 -3.35353 -0.193903 -0.123331 -0.00400916
1753 1 0.899816 0.0495444 0.0491238 0.329211 -3.30795 0.0600704 0.202562 0.0287908
1681 1 0.999356 0.0512953 0.0512153 0.680712 -3.36213 0.317197 -0.343238 -0.219184
80 1 0.947534 0.0239822 0.0248868 0.930582 -3.34712 0.707569 0.266532 0.0885816
159 1 0.973811 0.0497228 0.024966 0.226878 -3.33673 -0.12517 -0.144764 0.0650286
1677 1 0.951331 -0.00044323 0.0513558 0.721069 -3.35677 -0.519757 0.0818514 -0.30805
1678 1 0.975153 0.0250928 0.0491397 0.632528 -3.29327 -0.180966 0.0700582 0.18331
1757 1 0.949422 0.048209 0.0508897 0.427319 -3.33042 0.0519485 0.084957 -0.122954
84 1 0.000368886 0.0739104 0.025475 0.453384 -3.35282 -0.124958 0.395182 0.13854
161 1 -0.000492178 0.100711 -0.00113118 0.530862 -3.28196 0.436893 -0.073711 0.67097
163 1 0.0254294 0.0997289 0.0238561 0.314287 -3.34588 -0.08763 0.0770374 0.329463
165 1 0.0502243 0.100155 1.00013 0.305997 -3.34613 -0.0720023 -0.19166 -0.36011
1682 1 0.0263005 0.0763371 0.0502909 0.669706 -3.37499 -0.149031 -0.0493183 -0.102168
1761 1 0.99964 0.0995524 0.0495517 0.323394 -3.38256 0.248923 0.0544419 0.00390914
1765 1 0.0504573 0.10153 0.049585 0.668212 -3.34663 0.0177603 -0.561478 -0.0947823
88 1 0.0523274 0.0741008 0.0248579 1.004 -3.30307 -0.567134 0.565428 0.321275
92 1 0.100356 0.0763279 0.0228458 0.957858 -3.31175 -0.290328 -0.447982 0.455501
167 1 0.0755155 0.101414 0.0239559 0.449274 -3.32405 -0.0735247 -0.462214 0.541379
1686 1 0.0771784 0.0743134 0.0488049 0.750256 -3.35619 -0.411439 0.151865 0.0367633
1769 1 0.100732 0.10096 0.049607 0.290895 -3.33075 -0.233824 -0.297732 -0.387702
96 1 0.149464 0.0742218 0.0239224 0.60487 -3.35408 -0.268373 -0.0774566 -0.0738759
171 1 0.125099 0.100205 0.0238898 0.469492 -3.29842 -0.24936 -0.0815907 -0.0367093
1690 1 0.123798 0.0734094 0.0489125 0.652374 -3.35251 0.0075928 0.19144 -0.0257053
1773 1 0.145365 0.100075 0.0491111 2.14288 -3.30854 0.979793 -0.127711 0.0707452
100 1 0.198217 0.0749628 0.0234493 0.619665 -3.31586 0.193244 0.28545 0.141936
175 1 0.17274 0.0999317 0.0237827 0.373554 -3.3163 0.204494 -0.089858 -0.0327146
1694 1 0.172887 0.0765276 0.0481801 0.629296 -3.35467 0.117198 0.108275 0.394354
1777 1 0.198639 0.0998086 0.0492705 0.240379 -3.30428 0.452497 -0.257725 -0.0419797
104 1 0.250176 0.0756373 0.027445 0.866818 -3.27519 -0.446977 -0.47026 -0.866942
179 1 0.224548 0.0982024 0.0248978 0.589941 -3.33632 -0.066674 0.258172 0.451248
1698 1 0.223985 0.0751832 0.0522515 1.21279 -3.3392 0.188567 0.206994 -0.378726
1781 1 0.250977 0.0989346 0.0501325 0.373736 -3.32437 -0.351603 0.520998 0.2267
102 1 0.276475 0.0742814 0.000379866 0.611363 -3.35921 -0.346492 0.0350222 -0.149274
108 1 0.299571 0.0755986 0.0265312 0.71928 -3.31801 0.221105 -0.182869 -0.318601
183 1 0.274385 0.0988535 0.0240719 0.706672 -3.30595 0.368416 0.30827 0.103833
1702 1 0.27431 0.0753847 0.0493961 0.483173 -3.26485 0.591886 -0.138606 0.751334
1785 1 0.301242 0.100261 0.0496456 0.489798 -3.35611 -0.445353 -0.00492801 0.297998
112 1 0.350835 0.0757143 0.0256348 0.574049 -3.29416 -0.120091 -0.266147 -0.41477
187 1 0.324034 0.100279 0.0244795 0.550287 -3.29406 0.415327 0.0413112 0.19753
1706 1 0.32606 0.0754762 0.0486081 0.354454 -3.31625 -0.113973 -0.238902 0.494801
1789 1 0.350888 0.0992234 0.0484816 0.671987 -3.35165 0.0541134 0.647778 0.345116
116 1 0.39902 0.0750756 0.0248789 0.284525 -3.36975 0.389933 -0.210708 -0.0750249
191 1 0.375259 0.100361 0.0243066 0.239315 -3.28492 -0.0140243 0.102608 0.47111
1710 1 0.376391 0.0757739 0.0497648 0.322418 -3.35555 -0.204266 -0.162588 0.0190596
1793 1 0.399462 0.101548 0.0500389 0.722685 -3.31702 0.246999 -0.635633 -0.279488
114 1 0.42487 0.0733068 -0.00173798 0.663362 -3.33068 0.222227 0.409673 0.513534
120 1 0.449547 0.0736809 0.025145 0.35934 -3.40294 0.183651 0.13341 -0.407305
195 1 0.424888 0.0987865 0.0242302 0.367109 -3.35485 0.098362 -0.197433 0.365449
197 1 0.449719 0.0994741 -0.000789559 0.158519 -3.3447 -0.0297453 -0.360624 0.223534
1714 1 0.42629 0.0745827 0.0501151 0.447884 -3.37304 -0.401464 -0.155784 -0.0362566
1797 1 0.449654 0.0998705 0.0508667 0.595726 -3.35151 0.171757 -0.0858962 -0.454181
199 1 0.476119 0.0996212 0.0251549 0.459851 -3.38285 -0.327961 -0.310352 -0.145746
122 1 0.525992 0.0763296 0.00117149 0.92323 -3.31327 -0.0621752 -0.405212 -0.393796
124 1 0.500509 0.0748188 0.0248259 0.188432 -3.30252 -0.246374 -0.124496 -0.401779
201 1 0.499773 0.100656 -0.000722053 0.491997 -3.34641 0.147802 -0.329136 0.216727
1718 1 0.476312 0.074099 0.0492274 0.237007 -3.31165 -0.245617 0.403165 0.315446
1722 1 0.525696 0.0749278 0.0493446 0.392399 -3.31588 0.419207 -0.0992899 0.012245
1801 1 0.50161 0.0985911 0.0497753 0.430362 -3.3133 -0.23789 0.350744 -0.060913
203 1 0.52399 0.0984655 0.0248602 0.995612 -3.30401 0.442022 0.665666 0.0343737
128 1 0.552118 0.0741149 0.0256607 0.756269 -3.33365 -0.251936 0.456107 -0.198509
205 1 0.552165 0.0999505 0.000788145 0.835123 -3.38766 -0.130034 -0.0974361 -0.178256
207 1 0.575692 0.099435 0.0259179 0.525921 -3.344 0.137543 0.0918771 -0.187038
1726 1 0.57624 0.0725071 0.0502907 1.66121 -3.26296 -0.368474 0.70702 0.159395
1805 1 0.549414 0.10141 0.0494334 0.717814 -3.33198 0.0420266 -0.682515 -0.0552929
132 1 0.599061 0.0756503 0.0266459 1.59545 -3.31983 0.764437 -0.210244 -0.664156
209 1 0.600238 0.0976655 0.997018 2.97999 -3.31445 0.237136 0.596596 0.981164
211 1 0.626752 0.100041 0.0253105 0.504127 -3.37262 -0.473778 -0.193926 -0.29224
1730 1 0.627135 0.0747914 0.0512242 0.676074 -3.34857 -0.439952 -0.00686674 -0.246799
1809 1 0.600822 0.0993392 0.0503965 0.28966 -3.35343 -0.0334543 0.310223 -0.208944
136 1 0.650832 0.0736312 0.0257766 0.319816 -3.33303 -0.120308 -0.11183 -0.140319
215 1 0.674003 0.0991518 0.0252357 0.432492 -3.30157 0.484577 0.292108 0.18613
1734 1 0.675633 0.0727343 0.0508804 0.647367 -3.26955 0.0325097 0.522578 -0.721591
1813 1 0.651301 0.0989376 0.049886 0.387367 -3.32597 -0.294348 0.168032 0.358049
140 1 0.699514 0.075128 0.025448 0.665465 -3.34519 -0.00235218 -0.470607 -0.288531
217 1 0.700175 0.100156 0.999901 0.303294 -3.29691 -0.359127 -0.399364 -0.0711993
219 1 0.723426 0.0987928 0.0238028 0.969982 -3.36284 0.426798 0.222634 0.546722
1738 1 0.722191 0.0741185 0.0505217 1.56812 -3.31006 0.727345 0.258562 0.000893262
1817 1 0.699464 0.100091 0.0504349 0.293643 -3.34567 0.21178 0.148045 -0.153324
144 1 0.750425 0.0753831 0.0260243 0.743438 -3.29299 -0.549825 -0.322162 -0.120355
223 1 0.773305 0.099829 0.0234915 1.00112 -3.27433 0.536499 0.108576 0.510789
1742 1 0.774638 0.0736827 0.0482795 0.590395 -3.325 0.27764 0.55881 0.295765
1821 1 0.748791 0.0994319 0.0504051 0.426673 -3.32415 0.0577475 -0.180726 -0.388747
148 1 0.801945 0.0740303 0.0248699 0.978912 -3.30113 -0.696087 -0.169153 0.3489
225 1 0.799989 0.0990133 0.00221004 0.871742 -3.34285 -0.235451 0.344642 -0.549532
227 1 0.824009 0.0985375 0.0261993 0.638343 -3.26316 0.369549 0.541206 -0.261367
1746 1 0.826918 0.0742786 0.0497435 1.07464 -3.25473 -0.702543 -0.0568968 -0.0823681
1825 1 0.799301 0.0991769 0.0498459 0.262151 -3.34613 -0.12651 -0.0703102 -0.0957913
152 1 0.851362 0.0766647 0.0232396 1.6004 -3.32528 -0.0618656 -0.419703 0.31141
231 1 0.875056 0.103848 0.0255425 2.20958 -3.37434 -0.0589939 -0.579752 0.0516083
1750 1 0.874456 0.0761915 0.0489819 0.405129 -3.34792 0.230393 0.0166543 -0.123539
1829 1 0.847755 0.0995065 0.0503624 1.03842 -3.30143 0.810503 0.39827 0.0208585
154 1 0.92487 0.0749706 0.999608 0.199226 -3.35502 -0.0301613 -0.15199 0.132993
156 1 0.90065 0.077007 0.0241894 1.01518 -3.34935 -0.190612 -0.623659 0.349158
235 1 0.927122 0.100695 0.025018 0.621235 -3.29955 -0.249293 -0.56557 -0.353819
1754 1 0.927271 0.0734371 0.048833 1.19642 -3.33041 -0.589133 0.304844 0.297461
1833 1 0.902121 0.0998225 0.0495762 0.734108 -3.34906 -0.310348 0.164507 -0.16632
158 1 0.974182 0.0754942 1.00002 0.434608 -3.28693 0.311802 -0.417837 0.215539
160 1 0.949802 0.0730414 0.0248303 0.403971 -3.31303 -0.0530007 0.217164 -0.0909469
237 1 0.951062 0.0982805 0.999595 0.815723 -3.33038 -0.298449 0.82014 0.0704764
239 1 0.975526 0.0991771 0.0245414 0.294569 -3.36317 -0.0502188 0.135077 0.184463
1758 1 0.974127 0.0740227 0.0502464 0.265145 -3.3456 0.0986549 0.192021 0.0150252
1837 1 0.951232 0.0999825 0.0508421 0.501073 -3.31517 0.0221395 -0.165243 -0.333486
162 1 0.0266852 0.124645 1.0002 0.628569 -3.33584 -0.392663 0.208482 -0.00526804
164 1 0.999462 0.124925 0.0234364 0.51101 -3.39941 0.277176 0.142269 0.299414
168 1 0.0518014 0.12512 0.024354 0.476947 -3.31522 -0.502928 0.245461 0.166516
243 1 0.0252329 0.151533 0.0242412 0.341778 -3.35503 0.158541 -0.528154 0.297668
245 1 0.0493839 0.151003 1.00047 0.495247 -3.29593 0.337652 0.0420404 0.0347963
1762 1 0.0255897 0.124763 0.049697 0.201563 -3.34216 -0.27441 -0.291101 -0.304183
1845 1 0.0503736 0.149017 0.0504444 0.917577 -3.34708 0.155934 0.222681 -0.57295
172 1 0.100983 0.125904 0.0251161 0.335701 -3.28657 -0.473781 -0.157585 -0.023445
247 1 0.0749379 0.150711 0.0232751 0.702279 -3.37973 0.303896 0.126619 0.581518
1766 1 0.0760554 0.124974 0.05004 0.417846 -3.35923 0.0354956 0.379053 -0.0670527
1849 1 0.100061 0.152408 0.0484738 0.614928 -3.36808 -0.337692 -0.108063 0.181737
176 1 0.150064 0.124173 0.0234212 0.282435 -3.35298 -0.00251571 0.229345 0.0719702
251 1 0.124951 0.148063 0.0252377 1.37568 -3.27365 0.404432 0.788625 -0.233344
253 1 0.153888 0.150947 0.999894 2.21824 -3.3181 -0.723722 -0.147725 -0.0231115
1770 1 0.123463 0.126463 0.0502789 0.833599 -3.24565 0.137309 -0.109276 -0.198379
1853 1 0.150458 0.149261 0.0480459 0.642177 -3.33982 -0.0957672 0.126894 0.213362
174 1 0.175936 0.123927 -0.00200385 1.07135 -3.33202 -0.292771 0.277046 0.41576
180 1 0.198691 0.123902 0.0258637 0.8769 -3.32332 0.726385 0.15119 -0.557483
255 1 0.175816 0.148976 0.0245119 0.40659 -3.33065 0.184192 0.262438 0.26891
257 1 0.201745 0.150693 0.000309843 0.464152 -3.31649 -0.389521 -0.210563 0.15498
1774 1 0.175662 0.122654 0.0492474 1.18552 -3.27901 -0.83317 0.666151 0.0765895
1857 1 0.200753 0.148007 0.050801 0.991986 -3.32493 -0.258294 0.38456 -0.0987145
178 1 0.226801 0.123029 0.0015596 1.19929 -3.3185 -0.560274 0.780182 -0.0436509
184 1 0.250896 0.124362 0.0246192 0.50044 -3.34195 -0.255144 0.093132 0.386813
259 1 0.223892 0.150762 0.0269304 0.861832 -3.3507 0.159449 -0.309477 -0.15378
1778 1 0.226875 0.123384 0.0502581 0.961622 -3.34432 -0.575156 0.25276 -0.460922
1861 1 0.251224 0.149263 0.0500573 0.681024 -3.30769 -0.236749 0.541976 -0.0302275
182 1 0.275334 0.124843 1.00122 0.332584 -3.30364 -0.13102 -0.0150353 -0.126715
188 1 0.299234 0.124775 0.0249837 0.3532 -3.30785 0.00993792 -0.131988 0.284573
263 1 0.27285 0.150647 0.0253103 1.06413 -3.34781 0.587006 0.128326 0.0726353
1782 1 0.276272 0.124266 0.0499733 0.519579 -3.35106 -0.185305 -0.00680263 -0.020137
1865 1 0.29905 0.15052 0.0514826 0.38667 -3.33999 0.0799592 0.0491288 -0.369117
186 1 0.326262 0.125225 0.00164571 0.57118 -3.30509 -0.135681 -0.142159 -0.464166
192 1 0.351433 0.125538 0.0254231 0.439432 -3.36172 -0.206296 -0.0483219 0.481994
267 1 0.324777 0.14806 0.0264795 0.782916 -3.31717 0.20417 0.642535 -0.00663329
269 1 0.349541 0.150646 1.00203 0.361704 -3.33705 -0.125841 0.0653841 -0.255911
1786 1 0.324124 0.125573 0.0503896 0.461422 -3.34522 0.435191 -0.161204 0.114936
1869 1 0.350273 0.150984 0.0516716 0.378027 -3.35849 -0.307865 -0.271486 -0.394557
190 1 0.374687 0.125509 1.00119 0.188923 -3.35394 -0.0457101 0.157233 -0.338295
196 1 0.399796 0.125561 0.0241861 0.337295 -3.25447 -0.0442176 -0.122747 0.172026
271 1 0.375908 0.150788 0.0258492 0.155221 -3.33542 -0.268776 -0.0784495 -0.0968806
1790 1 0.37681 0.126632 0.0514802 1.39943 -3.25125 -0.735695 -0.644885 -0.770214
1873 1 0.401194 0.148214 0.0480721 1.23353 -3.26345 0.236265 0.789276 0.751381
194 1 0.424136 0.12298 0.000960026 0.70017 -3.31324 0.455556 0.605793 -0.339772
200 1 0.449954 0.122997 0.0245197 0.22471 -3.31251 -0.0902248 -0.0411063 -0.0217663
275 1 0.425136 0.149088 0.0245981 0.268019 -3.37071 0.17922 0.335283 -0.256684
1794 1 0.424591 0.1239 0.0494894 0.140932 -3.33707 0.328128 -0.00905447 0.139108
1877 1 0.450017 0.147847 0.0480299 0.572003 -3.32956 -0.170002 0.477762 0.516256
279 1 0.473988 0.14794 0.0242754 0.678773 -3.27088 0.241672 0.593138 -0.295105
198 1 0.474431 0.123173 -0.000979107 0.48157 -3.3174 -0.00368079 0.510784 0.133291
204 1 0.499024 0.125906 0.0248428 1.00208 -3.32963 0.641227 -0.344462 -0.189903
283 1 0.526287 0.149547 0.0230789 1.4213 -3.32011 -0.346284 0.0334905 0.330049
1798 1 0.475646 0.12504 0.0482071 0.701822 -3.29231 -0.0364276 -0.37213 0.664445
1881 1 0.499804 0.150795 0.0501412 0.851614 -3.35283 0.219662 -0.355091 -0.0107873
1802 1 0.52501 0.126078 0.0479738 1.24586 -3.30692 -0.558708 -0.43555 0.126584
206 1 0.57732 0.125616 0.00195437 1.68264 -3.26036 -0.77315 -0.653861 -0.708661
208 1 0.550521 0.123885 0.0256347 0.376254 -3.24019 -0.27454 0.0483651 -0.877655
287 1 0.575343 0.149277 0.0248707 0.488398 -3.26356 -0.321286 0.732665 -0.0892108
1806 1 0.573974 0.125814 0.0483218 0.802976 -3.27978 0.690471 -0.408984 0.623973
1885 1 0.549007 0.147904 0.0489092 1.12375 -3.29733 0.301527 1.04157 0.238042
212 1 0.600428 0.12626 0.0246491 0.575853 -3.27793 0.38637 -0.739661 0.344323
289 1 0.600057 0.148938 -0.000785144 0.953993 -3.27956 0.306839 0.944181 0.10219
291 1 0.624629 0.150703 0.0257527 0.572482 -3.35038 0.387589 0.308404 -0.157558
1810 1 0.626068 0.124665 0.0483685 0.743691 -3.32701 -0.36745 0.152851 0.653443
1889 1 0.599117 0.150665 0.0491058 0.692314 -3.27975 0.676003 -0.630946 0.717276
214 1 0.674959 0.125852 1.00064 0.184969 -3.37692 0.0417492 -0.061945 -0.116759
216 1 0.649828 0.126573 0.0260049 0.594499 -3.30138 0.282279 -0.144667 -0.468454
293 1 0.650092 0.150813 -0.000611305 0.260883 -3.34285 0.0333414 -0.160583 0.241523
295 1 0.675369 0.150438 0.0253538 0.173805 -3.33518 -0.113873 -0.173156 0.0113486
1814 1 0.673995 0.124419 0.0497847 0.521294 -3.35715 0.338384 0.223048 0.259518
1893 1 0.651623 0.151116 0.0502235 0.385419 -3.34901 -0.247496 -0.0590024 -0.0176116
220 1 0.700148 0.124642 0.0248533 0.234953 -3.34227 -0.11808 -0.0525796 0.343839
299 1 0.725446 0.151274 0.0250866 0.615224 -3.34671 0.330863 -0.494417 -0.148238
1818 1 0.725849 0.127005 0.0499161 0.882834 -3.32923 -0.25359 -0.489374 -0.27864
1897 1 0.70031 0.149591 0.0492458 0.493763 -3.306 -0.0636014 -0.140847 0.236459
224 1 0.7498 0.1242 0.0244736 0.324924 -3.31971 -0.476429 0.21515 -0.014603
303 1 0.775249 0.149806 0.0239322 0.37824 -3.33161 -0.10137 0.0569951 0.15002
1822 1 0.773724 0.123044 0.0481506 1.04582 -3.30691 0.370173 0.327604 0.435036
1901 1 0.751838 0.149098 0.0494604 1.24448 -3.37042 -0.167089 0.552264 0.0824173
226 1 0.823943 0.124981 0.999856 0.428719 -3.3633 0.16568 0.293693 0.447116
228 1 0.800265 0.124715 0.0259835 0.51646 -3.36071 -0.079259 0.102884 -0.391596
305 1 0.800252 0.152818 0.99914 1.75952 -3.29312 -0.312822 -0.78192 0.352602
307 1 0.824012 0.151382 0.0259803 0.491799 -3.32641 0.018078 -0.436541 -0.217024
1826 1 0.824093 0.12345 0.0507284 0.715907 -3.29271 0.141246 0.62488 -0.0261713
1905 1 0.798295 0.150352 0.0493118 0.466501 -3.35287 -0.0847931 -0.0659995 0.359661
230 1 0.874621 0.126758 0.0010691 0.643961 -3.27913 -0.0859928 -0.465805 -0.263965
232 1 0.84717 0.125676 0.0260901 1.19786 -3.36737 0.317518 -0.0680506 -0.253978
309 1 0.85025 0.150349 1.0001 0.36403 -3.34343 -0.532631 0.056586 0.188311
311 1 0.875437 0.149711 0.0249909 0.436949 -3.33187 -0.275939 0.349904 0.270367
1830 1 0.874482 0.126185 0.0504388 0.632617 -3.29804 0.076226 -0.252129 -0.0808217
1909 1 0.850632 0.150596 0.0504627 0.307101 -3.32196 -0.0759427 -0.0842492 -0.0839867
234 1 0.92586 0.125327 -0.000455323 0.346013 -3.34684 0.0682559 -0.233716 -0.226331
236 1 0.902109 0.126441 0.0219041 1.96435 -3.28287 -0.380763 -0.158363 0.66616
315 1 0.925896 0.152156 0.0236462 0.94665 -3.32266 -0.413734 -0.298908 0.369739
1834 1 0.925865 0.124621 0.0470691 1.26464 -3.30795 -0.143497 0.571164 0.695918
1913 1 0.899964 0.148845 0.0491807 0.794791 -3.36725 0.225601 0.344184 0.242073
1841 1 1.00083 0.150271 0.0495034 0.375774 -3.34332 -0.247 -0.154942 -0.0944498
238 1 0.975037 0.127435 0.999038 1.09191 -3.32068 0.315176 -0.655629 0.0815293
240 1 0.951441 0.123737 0.0252425 0.8424 -3.31755 0.192191 0.320593 -0.0764836
317 1 0.949781 0.14881 0.00102354 1.13827 -3.28358 0.120212 0.50527 -0.341939
319 1 0.974455 0.150181 0.0240145 0.536031 -3.31365 0.242952 -0.102339 0.356538
1838 1 0.976332 0.126294 0.0513207 1.11376 -3.32031 -0.144938 0.0235257 -0.587234
1917 1 0.949743 0.152684 0.0488898 1.16292 -3.34369 -0.0905732 -0.637086 0.201087
242 1 0.0265503 0.176676 1.00057 0.514042 -3.31649 -0.480639 -0.0580495 -0.287484
248 1 0.0508721 0.176387 0.0257707 0.576211 -3.27091 -0.615812 -0.428664 -0.357111
323 1 0.0251633 0.200314 0.0248777 0.178973 -3.35429 -0.151088 0.162929 0.0616934
1842 1 0.0245583 0.175777 0.0491339 0.365479 -3.32298 0.0338065 -0.236978 -0.0195176
1921 1 -0.000144168 0.201692 0.0495022 0.732161 -3.37061 0.0305493 -0.184834 -0.0090775
1925 1 0.0490989 0.200322 0.0508549 0.586477 -3.27664 -0.0941229 0.339021 -0.263128
252 1 0.101324 0.177686 0.0242047 1.34775 -3.28666 -0.560313 -0.919372 -0.0999947
327 1 0.0736053 0.2014 0.0248737 0.495558 -3.33179 0.288181 0.338309 -0.15437
329 1 0.0996336 0.20151 0.000417587 0.430451 -3.3414 0.058748 -0.353905 -0.329549
1846 1 0.0729255 0.17805 0.0483235 1.57727 -3.22917 0.824291 -0.819893 0.50298
1929 1 0.0990733 0.199312 0.0493198 0.557836 -3.30591 -0.0596075 0.643 0.261367
250 1 0.126741 0.172876 1.00159 1.51134 -3.36026 -0.061958 0.436974 -0.493656
256 1 0.150672 0.175004 0.0263133 0.427032 -3.33092 0.0569935 -0.128265 -0.216892
331 1 0.125056 0.199627 0.0248784 0.365011 -3.27933 0.190104 0.266737 0.100759
333 1 0.150543 0.200045 0.00248753 0.645983 -3.33211 -0.0291922 -0.0736783 -0.383855
1850 1 0.124142 0.176617 0.0504302 0.902788 -3.34585 0.534353 -0.368553 0.0655945
1933 1 0.151614 0.19954 0.0499459 0.665051 -3.32084 -0.455127 0.371521 0.118474
254 1 0.176495 0.176937 0.000206891 0.607849 -3.31544 -0.217553 -0.39595 -0.207727
260 1 0.198614 0.176262 0.0246502 1.13357 -3.30156 0.734762 -0.514414 0.541179
335 1 0.176859 0.200581 0.0262457 0.621407 -3.28887 -0.447475 0.466862 -0.160863
1854 1 0.175628 0.176997 0.050508 0.851161 -3.2898 0.371856 -0.637224 -0.0700642
1937 1 0.20107 0.201272 0.0504695 0.309658 -3.36715 -0.0860614 -0.067237 -0.0539199
264 1 0.248249 0.1769 0.0275905 1.13916 -3.31777 0.455754 -0.545563 -0.324438
339 1 0.226452 0.201263 0.0235028 1.23073 -3.29903 -0.562147 0.000506754 0.640333
1858 1 0.22383 0.175666 0.0507313 0.607741 -3.35287 0.0221527 0.0236296 0.0586437
1941 1 0.249611 0.200368 0.0510016 0.31635 -3.2865 -0.200925 0.0862502 0.163304
268 1 0.300212 0.173186 0.02579 0.973036 -3.32255 -0.574367 0.238405 0.13593
343 1 0.274882 0.200656 0.0275715 0.35947 -3.34513 0.0438228 0.0348315 -0.735529
345 1 0.299911 0.20002 1.00251 0.457597 -3.35601 -0.45805 -0.0478334 -0.463802
1862 1 0.274826 0.177135 0.0512714 0.719434 -3.30434 0.0214256 -0.814223 -0.243414
1945 1 0.299561 0.200629 0.0514737 0.379848 -3.26274 0.24977 -0.192259 -0.107088
272 1 0.350948 0.17555 0.0270628 0.716034 -3.3534 -0.361276 -0.0611964 -0.33398
347 1 0.324352 0.199152 0.0273758 0.671068 -3.3168 0.319484 0.0669365 -0.421551
349 1 0.348619 0.198738 0.998534 1.29814 -3.33513 0.265008 0.0390111 0.496166
1866 1 0.323417 0.175226 0.0497921 0.915027 -3.31794 0.409654 -0.369261 0.407464
1949 1 0.350419 0.199522 0.0510095 0.428418 -3.34603 0.0179812 0.296339 -0.312218
276 1 0.399757 0.17512 0.0257247 0.370985 -3.37365 0.139319 0.224556 -0.0498473
351 1 0.37524 0.202023 0.0238907 1.30578 -3.31132 -0.153374 -0.756494 0.310914
353 1 0.400771 0.20041 1.00139 0.69674 -3.31904 -0.502669 0.225655 -0.302759
1870 1 0.375314 0.17488 0.0515721 0.529091 -3.32597 0.273178 0.208205 -0.323946
1953 1 0.400237 0.201495 0.0500638 0.404742 -3.37792 -0.0471852 -0.389752 0.185129
280 1 0.450002 0.174612 0.0217382 1.45126 -3.3171 -0.11361 -0.0572443 0.78542
355 1 0.425169 0.202678 0.0255069 1.09878 -3.30476 -0.140235 -0.538151 -0.0704173
357 1 0.450227 0.199739 0.00036783 0.389978 -3.3042 0.00664668 0.158253 -0.103439
1874 1 0.426009 0.175928 0.0483531 0.681384 -3.34674 -0.279147 -0.562922 0.0349466
1957 1 0.449511 0.199244 0.0484513 0.533583 -3.28308 0.255754 -0.135793 0.20772