ITEM: TIMESTEP
17250
ITEM: NUMBER OF ATOMS
32000
ITEM: BOX BOUNDS pp pp pp
6.8702804691943120e+00 7.4129719530805744e+01
-3.4023498886993409e+00 8.4402349888699533e+01
-5.1973073515645680e+00 8.6197307351563978e+01
ITEM: ATOMS id type xs ys zs c_csym c_peratom fx fy fz
4 1 0.0035047 0.0306757 0.0318949 3.12122 -3.24381 0.349189 0.775964 -0.708384
8 1 0.0456159 0.0264846 0.0254989 0.738937 -3.30499 0.241255 0.329432 0.230654
2 1 0.0205192 0.02357 0.000446316 0.462775 -3.3465 -0.0381553 0.33125 0.264642
85 1 0.0472716 0.0495994 0.00468685 1.74122 -3.31704 -0.346691 -0.226372 -0.370559
12 1 0.0897656 0.0238838 0.0245234 1.49551 -3.31811 -0.127374 -0.606683 -0.405243
91 1 0.116136 0.0478321 0.0262659 0.358473 -3.30229 -0.291884 0.0844304 -0.283488
6 1 0.0617828 0.0178861 0.997347 0.591619 -3.35397 0.452094 0.215808 0.288452
89 1 0.0891316 0.0444989 0.000510379 0.422786 -3.37177 0.0496491 -0.0102397 0.0435076
16 1 0.130099 0.0159767 0.0200421 0.381842 -3.25374 0.119703 0.572509 -0.0712518
1614 1 0.155801 0.0165571 0.0438071 0.914199 -3.27482 0.524599 0.278917 0.244685
95 1 0.15713 0.040047 0.0227273 0.518761 -3.31421 0.206984 0.381439 -0.0467131
20 1 0.17242 0.0108785 0.0165988 0.387731 -3.32745 0.0907068 -0.0771174 -0.290414
99 1 0.198943 0.0352619 0.0188468 0.407883 -3.31593 0.0780427 0.366123 -0.616569
24 1 0.212622 0.00451965 0.00976638 6.47808 -3.33212 0.457666 0.162026 0.447746
1618 1 0.198529 0.0154388 0.0411895 2.09474 -3.1687 0.091643 -1.27646 -0.378519
1701 1 0.226906 0.0366643 0.0418219 0.393517 -3.31179 0.194615 0.322581 -0.114659
1622 1 0.242306 0.00630714 0.0369562 7.29957 -3.31854 -0.359322 0.0313782 -0.2511
103 1 0.241179 0.0276393 0.012152 7.24369 -3.33016 0.112528 0.269427 0.438848
28 1 0.276414 0.0076422 0.0178117 0.518505 -3.33793 -0.0211744 -0.309774 -0.25313
1705 1 0.268925 0.0301919 0.0382568 6.99586 -3.26066 0.045919 -0.0207379 -0.183438
1626 1 0.304539 0.0110547 0.0429878 2.79196 -3.31714 -0.285205 -0.45682 -0.296078
1709 1 0.301959 0.0330062 0.0174074 0.726166 -3.26168 0.163056 0.0629675 0.431099
1630 1 0.334326 0.00986134 0.0208824 0.888403 -3.28891 0.358606 0.429321 0.30131
1713 1 0.361723 0.0388318 0.021108 2.51392 -3.24722 -0.371494 -0.852972 0.601698
1711 1 0.328806 0.0360662 0.0398024 4.60505 -3.28433 0.14962 -0.0676096 0.651497
1636 1 0.35961 0.0117739 0.046577 0.924684 -3.3758 -0.0936043 0.00319919 -0.0628278
115 1 0.390065 0.0363364 0.000706633 1.82551 -3.2283 0.507654 0.682173 0.02525
1634 1 0.390547 0.0147728 0.0244802 0.709071 -3.35973 0.138295 -0.432706 0.128914
40 1 0.421283 0.015491 0.00314671 1.10713 -3.29128 0.593108 0.256229 0.713823
1717 1 0.42027 0.0370726 0.0266692 0.774093 -3.26914 -0.38279 -0.02078 -0.206493
1638 1 0.45114 0.0164169 0.0292049 0.341123 -3.25599 0.00848294 0.126082 -0.281982
44 1 0.484501 0.0185792 0.0100559 1.01247 -3.29974 -0.434449 -0.0406671 -0.578363
119 1 0.451659 0.0397737 0.00710372 0.485686 -3.29809 0.0295687 -0.223973 -0.132637
1721 1 0.477128 0.0403143 0.0327135 1.63554 -3.3282 0.2126 0.515799 -0.152698
1642 1 0.509825 0.0226306 0.0325959 6.03218 -3.25188 -0.0675364 -0.412976 0.481779
48 1 0.542129 0.0248794 0.0142322 0.630128 -3.25251 0.34368 -0.146772 -0.514585
1645 1 0.540689 0.000580831 0.0359667 6.35742 -3.25326 -0.170946 -0.060189 -0.562377
43 1 0.516975 0.999529 0.00991425 1.00802 -3.30804 -0.0553575 -0.108529 0.312218
123 1 0.510558 0.0428691 0.00969017 1.03377 -3.28957 -0.366539 0.625531 -0.0168235
52 1 0.598002 0.0298126 0.0190921 0.822225 -3.32356 0.0424761 0.144009 -0.30669
47 1 0.572134 0.00512265 0.0171352 1.02239 -3.33499 0.474696 -0.324685 -0.423378
1646 1 0.568122 0.026156 0.0402255 1.31168 -3.28876 -0.040586 0.242059 -0.443633
1649 1 0.601515 0.00642574 0.0404048 0.861473 -3.29819 -0.25328 -0.324161 -0.0662998
1650 1 0.625993 0.0306731 0.0422479 0.449658 -3.3162 0.317703 0.568712 -0.156245
51 1 0.630354 0.0110748 0.0169333 2.84836 -3.3023 0.221123 -0.676583 0.505152
56 1 0.658806 0.0328609 0.0210276 0.195034 -3.2919 0.124845 -0.246232 0.164593
1653 1 0.655067 0.0090876 0.0438884 1.91334 -3.29119 0.824758 -0.00256097 -0.322373
55 1 0.688177 0.0103277 0.0229358 1.63894 -3.30244 0.385116 0.219328 0.0322082
54 1 0.691137 0.0353864 5.33037e-05 0.579442 -3.29504 -0.0301338 -0.0376026 -0.0569995
60 1 0.714488 0.0370015 0.0238227 1.80105 -3.2742 0.782235 0.254336 0.51536
57 1 0.722557 0.0153954 0.00424205 0.805474 -3.32969 -0.193702 -0.564828 -0.452404
58 1 0.748648 0.0391819 0.0055623 0.724811 -3.33977 0.0400263 0.245304 -0.115336
59 1 0.749801 0.0162732 0.0279486 0.29727 -3.24369 0.0774702 0.176179 0.239185
64 1 0.774706 0.0400881 0.028495 2.08443 -3.31476 0.365121 0.642601 0.245784
61 1 0.780889 0.0167123 0.00824299 0.828902 -3.28238 -0.0821718 0.479001 -0.160601
63 1 0.807069 0.0196919 0.0324144 0.353503 -3.34266 0.334428 0.140125 0.0531149
62 1 0.807574 0.0449875 0.0116891 0.291851 -3.32012 0.248544 -0.0928696 0.382258
68 1 0.834535 0.0455977 0.0347907 0.285398 -3.31953 0.10625 0.0347318 0.188382
65 1 0.839148 0.0224041 0.0125273 0.233264 -3.35719 -0.260527 -0.00268595 0.102078
66 1 0.866024 0.0476587 0.0162252 0.593447 -3.31321 0.299755 0.396658 0.119636
67 1 0.867265 0.0231212 0.0369507 7.55044 -3.32137 -0.122151 0.305122 0.010657
1586 1 0.871502 0.000804613 0.0150964 6.60866 -3.24977 0.0263258 0.22634 0.0861348
69 1 0.898168 0.0276406 0.0168316 6.55858 -3.30333 0.101505 0.24147 0.205476
73 1 0.93719 0.0169078 0.0276441 7.38321 -3.21381 0.237415 0.130644 -0.360857
71 1 0.90642 0.0162532 0.0441734 2.28615 -3.22725 -0.276743 0.293122 0.875967
78 1 0.978601 0.0275871 0.00421675 2.36502 -3.32825 -0.106112 -0.0720976 0.194876
74 1 0.965823 0.0424681 0.0319876 8.17945 -3.28515 0.187578 -0.138665 -0.389272
79 1 0.976758 0.00820705 0.0299706 2.58965 -3.29168 -0.25998 -0.0639327 -0.34661
77 1 0.950113 0.00333081 0.00331131 3.32042 -3.33368 0.282149 -0.233353 -0.111837
83 1 0.0304984 0.0589599 0.03236 2.64643 -3.36536 0.169904 -0.313767 0.370976
81 1 0.00284997 0.0535043 0.00820529 3.81335 -3.26168 0.0600507 -0.858858 -0.344883
82 1 0.0278591 0.0771209 0.0064008 2.48043 -3.20903 0.354674 -0.03126 -0.663705
158 1 0.0201726 0.0922401 0.0304221 3.22391 -3.21379 -0.0827638 0.0985033 0.713097
88 1 0.0604357 0.0826302 0.0353007 3.83792 -3.3401 0.0750108 -0.111723 -0.314942
87 1 0.0739007 0.0520421 0.0284159 0.5299 -3.3581 -0.179609 0.515408 0.298545
92 1 0.102573 0.078589 0.0320943 1.40787 -3.27816 -0.00339328 -0.529744 -0.471001
86 1 0.0714183 0.0746299 0.00231073 1.61237 -3.27678 -0.151688 -0.469664 0.125624
90 1 0.115721 0.0705172 0.0012289 0.745472 -3.21094 -0.567873 -0.582962 0.482205
96 1 0.142936 0.0718231 0.0286632 0.678348 -3.31093 0.190607 0.372739 0.00545389
100 1 0.18551 0.0664154 0.0275516 2.89553 -3.3061 -0.470929 -0.11191 -1.07367
94 1 0.154841 0.065386 1.00128 1.54708 -3.2574 0.990587 -0.214377 -0.210349
173 1 0.139903 0.0944856 0.00377094 7.58902 -3.31712 0.297722 0.690366 0.549505
104 1 0.226925 0.060051 0.0181891 0.641093 -3.32524 -0.230986 0.0593357 0.0118535
179 1 0.209544 0.0923822 0.0249062 4.11899 -3.26712 0.312697 -0.266152 -0.448948
183 1 0.251069 0.0862273 0.0198819 2.77482 -3.25317 -0.0897076 -0.354629 -0.425339
1702 1 0.252797 0.0625596 0.0415529 1.2712 -3.30036 -0.168256 0.0113936 0.369785
1785 1 0.27909 0.0882316 0.0415896 7.99212 -3.12133 -0.697548 0.0744271 0.764264
1706 1 0.268597 0.0523899 0.0140296 7.57149 -3.31046 0.0306078 0.452636 0.262264
1712 1 0.292165 0.0548964 0.0424672 7.61649 -3.29266 0.515948 0.0599469 -0.450133
1789 1 0.292163 0.0801831 0.0173413 7.86497 -3.2432 0.79473 -0.47045 -0.808979
1710 1 0.330637 0.0585427 0.0183186 2.25014 -3.23418 -0.753089 -0.00979251 0.695438
1793 1 0.355769 0.0826576 0.0228019 0.673702 -3.2665 -0.0531708 -0.483161 -0.363299
116 1 0.359974 0.0584523 0.998492 0.88702 -3.26366 0.556971 0.606881 -0.0970963
1791 1 0.319521 0.0790254 0.0449465 9.54684 -3.34255 0.222004 0.0868132 -0.273137
1716 1 0.35373 0.0608206 0.0460356 4.44796 -3.21897 0.0636499 -0.805908 -0.566679
195 1 0.388143 0.0844483 1.00133 0.449264 -3.40532 -0.12817 -0.177975 -0.00378966
1714 1 0.388749 0.0602585 0.0250886 0.959987 -3.262 -0.250227 0.0126695 -0.700972
120 1 0.419287 0.0578624 0.00488057 4.3109 -3.31703 -0.123291 0.934705 -0.48273
1797 1 0.415183 0.0853739 0.0248085 0.879489 -3.31422 -0.24512 -0.333227 0.206393
1718 1 0.446865 0.0638906 0.0279717 0.688585 -3.29701 -0.19857 -0.254813 0.204413
199 1 0.446263 0.0848367 0.00470295 1.16468 -3.28826 0.0625757 0.359212 0.366604
124 1 0.477524 0.0640058 0.00880335 0.895156 -3.34175 0.632756 0.203461 0.0144533
1801 1 0.472504 0.0883863 0.0301244 0.209143 -3.29611 -0.0386619 0.0110059 -0.011636
1725 1 0.536158 0.0466822 0.0340977 1.32478 -3.273 -0.310686 0.355708 0.783735
1722 1 0.505858 0.0685547 0.0327494 0.857376 -3.33166 -0.323689 -0.284114 -0.152865
128 1 0.534593 0.0699286 0.0122936 1.05146 -3.34061 0.0571929 0.446025 -0.135201
1726 1 0.561281 0.0745886 0.0381665 1.04297 -3.35381 0.151239 -0.17971 0.101507
203 1 0.503552 0.0928174 0.0114172 0.666206 -3.31796 0.517544 -0.287404 -0.53963
1805 1 0.530731 0.0949885 0.0354842 0.221151 -3.32849 0.0883015 0.128165 -0.0546156
127 1 0.568199 0.0516862 0.0177985 1.58302 -3.26955 0.196931 -0.448543 -0.374864
132 1 0.596794 0.0745218 0.0184651 0.373481 -3.3256 -0.0532975 0.0364868 -0.0342212
1729 1 0.594329 0.0528667 0.0418585 0.94501 -3.33674 0.254517 -0.308119 -0.144213
1730 1 0.623182 0.0771667 0.0431587 0.345607 -3.30576 0.295979 0.0272259 -0.48783
131 1 0.6292 0.053801 0.0200024 0.580826 -3.32132 -0.564777 0.17899 0.217975
136 1 0.655399 0.0793037 0.0220986 0.468028 -3.31362 -0.159063 0.289939 0.230051
135 1 0.684828 0.0568153 0.0251141 1.67306 -3.26587 0.302912 0.822814 -0.0947427
1733 1 0.653048 0.0559454 0.0444068 0.620743 -3.32248 -0.0898968 -0.14375 0.110262
133 1 0.661003 0.0563468 1.00091 1.32572 -3.28174 0.0133308 0.107403 -0.819436
134 1 0.683964 0.0831072 0.00173063 1.21562 -3.32886 0.380284 -0.295338 -0.0108295
140 1 0.714462 0.0856479 0.0259094 0.957465 -3.32096 -0.77443 -0.620435 0.0619154
137 1 0.719243 0.0626749 0.00348972 1.00794 -3.31077 -0.529443 -0.233692 0.338585
139 1 0.744667 0.0633116 0.0266081 0.545648 -3.30858 -0.108124 -0.28351 0.20657
138 1 0.745637 0.0871376 0.00725336 0.383798 -3.28171 -0.063082 0.204207 -0.563206
144 1 0.771479 0.0903053 0.0302276 0.906049 -3.26167 0.0342684 -0.263156 0.651403
141 1 0.777693 0.0686714 0.00954411 1.56394 -3.32803 0.157732 -0.619806 -0.199289
143 1 0.802417 0.0701203 0.034091 1.31227 -3.29085 0.165806 -0.687782 -0.400987
142 1 0.80457 0.0946389 0.0133591 1.84444 -3.30727 -0.224532 -0.236991 -0.422381
145 1 0.835608 0.0705275 0.015684 0.425919 -3.32807 0.0568801 0.0651543 -0.0267926
148 1 0.829202 0.0926982 0.0372165 0.731046 -3.31113 0.498036 0.198772 0.113909
147 1 0.862739 0.072145 0.0393948 0.57943 -3.35374 -0.331713 -0.187127 -0.0319505
146 1 0.861404 0.0969577 0.018168 0.878112 -3.30874 -0.0205392 -0.732521 -0.29709
72 1 0.894797 0.0512837 0.0391201 7.23799 -3.30002 -0.171563 -0.674493 0.062864
70 1 0.927876 0.0533189 0.0219182 6.80206 -3.22389 -0.339193 -0.730381 -0.705773
152 1 0.889723 0.0964537 0.0414315 0.399224 -3.28765 -0.169684 0.105766 -0.529678
149 1 0.891432 0.074176 0.0182739 0.97885 -3.32242 0.204585 -0.043206 -0.298979
151 1 0.920563 0.0755511 0.0398938 9.20555 -3.23023 0.501902 0.476977 0.582945
153 1 0.95417 0.0775904 0.0234266 6.79835 -3.27886 -0.0980072 0.300706 0.191589
157 1 0.991126 0.0691416 0.0319633 4.38462 -3.21269 0.241696 -0.0986233 0.415998
30555 1 0.985602 0.0809729 0.00475212 9.3748 -3.2584 0.0105083 0.30711 -0.0976123
30560 1 0.0128972 0.105905 0.00518857 9.10015 -3.29313 0.146991 0.417246 -0.167538
161 1 0.0475935 0.113717 0.036471 10.2829 -3.24943 0.200144 0.00911458 -0.176277
30639 1 0.0431177 0.131425 0.00748244 7.37612 -3.16617 -0.459779 -0.438035 -0.481337
237 1 0.0110552 0.127248 0.0276531 6.51381 -3.24835 -0.308634 -0.431332 -0.551082
165 1 0.0550839 0.102335 0.00767934 6.01346 -3.27602 -0.0487482 -0.276001 -0.0889007
167 1 0.0901407 0.106568 0.0380473 7.90029 -3.26425 -0.320132 0.385971 -0.529529
166 1 0.0831499 0.12624 0.00569433 7.92873 -3.20506 0.368334 -0.20914 -0.259103
169 1 0.0976933 0.0965372 0.00657643 8.74004 -3.24294 0.0703718 0.86963 0.269752
172 1 0.114806 0.132672 0.0409549 7.64339 -3.266 0.489715 -0.299364 -0.200079
171 1 0.132115 0.102735 0.0356105 2.64664 -3.30137 -0.261802 -0.105624 -0.092041
170 1 0.120631 0.123376 0.99335 7.38624 -3.24473 -0.449067 -0.398033 -0.0627349
162 1 0.0747641 0.135759 0.0334307 11.4459 -3.24143 -0.0297077 0.362964 -0.0183131
175 1 0.172024 0.0986227 0.0307987 1.95667 -3.26386 -0.432159 -0.173753 0.0763908
176 1 0.142633 0.125579 0.0167944 6.44744 -3.23716 0.245863 -0.077063 0.256417
180 1 0.183064 0.120076 0.0105137 5.57839 -3.23794 0.153768 0.228073 0.505835
1774 1 0.166294 0.128889 0.0406608 6.6529 -3.25336 -0.52676 -0.155701 -0.0955578
184 1 0.222598 0.117683 0.00654774 6.42902 -3.23509 0.181001 -0.050115 -0.195097
1778 1 0.207554 0.122444 0.0356153 2.50286 -3.27367 -0.439971 0.319881 -0.332483
1782 1 0.246331 0.114613 0.0294682 3.49636 -3.24491 0.43758 0.701708 0.122896
188 1 0.261689 0.109582 1.00023 1.8719 -3.21262 0.076918 0.191231 0.338632
1786 1 0.287187 0.113962 0.0230053 2.98889 -3.27298 -0.0824805 -0.19192 -0.0375457
267 1 0.289808 0.13539 -0.000446311 0.584071 -3.31843 0.0462138 0.168917 0.216634
1869 1 0.314087 0.139366 0.0235632 1.59959 -3.25989 -0.447886 0.694789 -0.128698
1790 1 0.323991 0.102192 0.0204609 6.63986 -3.22428 0.0952282 -0.455936 -0.7723
1873 1 0.350217 0.128349 0.0206925 4.1879 -3.2428 0.506956 -0.0781013 0.332546
1796 1 0.350829 0.102963 0.0462555 5.85181 -3.22418 0.420111 -0.55678 -0.00159673
1794 1 0.379859 0.106476 0.0247231 1.5107 -3.28077 0.310314 0.138946 -0.392344
275 1 0.385346 0.128075 0.000128561 2.47596 -3.30256 -0.658586 0.595974 0.0691539
200 1 0.415679 0.107993 0.0033936 0.388 -3.29017 0.131228 -0.00292543 -0.0897361
1877 1 0.408991 0.130934 0.0246767 0.694244 -3.31179 -0.142617 0.139678 0.29876
1798 1 0.441168 0.108764 0.0280207 0.496252 -3.32454 -0.0953986 0.463607 -0.0335445
279 1 0.440867 0.134808 0.00467479 0.552567 -3.32379 0.333636 -0.166011 0.346655
204 1 0.472067 0.112797 0.00883896 0.581557 -3.34305 -0.11092 0.250639 -0.313736
1881 1 0.469125 0.13666 0.0311234 0.781828 -3.32864 -0.402718 -0.097338 -0.316718
283 1 0.500126 0.139136 0.00928657 0.647884 -3.35306 -0.466501 0.0260361 0.379066
1802 1 0.498479 0.115066 0.0321385 0.254597 -3.32636 0.341528 0.160251 0.291657
208 1 0.531845 0.119163 0.0119804 0.408594 -3.32464 -0.24934 -0.388522 0.280805
1806 1 0.558136 0.123197 0.037084 1.52357 -3.30614 -0.105557 -0.770118 -0.115778
207 1 0.562207 0.0966908 0.0160493 0.461223 -3.32635 0.0369841 0.0632431 -0.143295
1885 1 0.525451 0.141918 0.0351879 0.348026 -3.29156 -0.354884 -0.405724 -0.165356
1809 1 0.591183 0.0980513 0.0387613 0.610079 -3.29668 -0.451239 0.139247 0.174286
211 1 0.622779 0.0992526 0.0193385 0.77142 -3.33168 0.150873 0.364025 0.0776694
212 1 0.589339 0.122316 0.0170757 0.459586 -3.33571 -0.250276 0.0641334 0.140225
1810 1 0.616183 0.121841 0.0419052 1.57301 -3.32022 0.484436 0.681766 -0.389657
215 1 0.682032 0.106312 0.0240823 0.301676 -3.35573 -0.228111 0.139716 -0.0410673
1813 1 0.650593 0.102747 0.0449676 0.596744 -3.36357 -0.186945 0.177813 -0.37143
216 1 0.647336 0.127743 0.0202798 0.492829 -3.32672 -0.0615989 -0.319396 0.472645
1814 1 0.676807 0.130316 0.0461361 0.533826 -3.33185 -0.181175 -0.198758 -0.331385
214 1 0.677807 0.130094 0.00143349 0.834809 -3.31843 0.604907 -0.175568 -0.170983
220 1 0.70804 0.132078 0.0262089 0.221102 -3.33695 -0.56697 0.0311127 0.167855
217 1 0.713345 0.107265 0.00302169 1.40348 -3.31481 -0.210818 0.667052 0.422428
219 1 0.738047 0.108685 0.031168 2.35391 -3.23512 0.42998 0.770235 -0.652934
218 1 0.737469 0.134176 0.00817285 1.18312 -3.31371 0.413252 0.0118469 -0.675222
224 1 0.76483 0.137776 0.0307102 1.52312 -3.3205 0.654975 -0.42365 0.0165495
221 1 0.769136 0.11322 0.0116789 1.94476 -3.30291 0.4654 0.300574 -0.437757
223 1 0.798817 0.114857 0.036099 1.1989 -3.30708 -0.0271991 0.014211 -0.224066
222 1 0.799748 0.135202 0.0113694 2.33307 -3.35148 -0.359602 0.469351 0.0743678
228 1 0.824903 0.138679 0.0362987 0.376776 -3.29255 -0.0579152 0.421081 0.30113
225 1 0.832771 0.118013 0.0161791 1.65338 -3.24335 -0.379381 -0.420651 -0.721052
227 1 0.858887 0.118798 0.0393063 0.60608 -3.24308 -0.16719 -0.443403 -0.0153972
226 1 0.858587 0.141213 0.0163018 0.581677 -3.26362 -0.400716 0.0452079 -0.3154
150 1 0.920316 0.0998494 0.0191193 0.888786 -3.27391 -0.0892345 0.0576896 0.3559
229 1 0.887724 0.119624 0.0184488 0.566126 -3.29055 0.578307 0.286991 -0.0870519
231 1 0.91687 0.121364 0.0421537 0.311536 -3.34627 -0.0704648 -0.0128579 0.114278
156 1 0.950997 0.100837 0.0456753 6.5604 -3.33502 -0.238567 -0.253967 -0.0897121
154 1 0.980485 0.103606 0.025623 5.29918 -3.31275 0.247791 -0.22591 -0.192258
233 1 0.946316 0.122529 0.0229056 1.82913 -3.31577 0.651599 0.700674 -0.194213
235 1 0.979047 0.125791 0.0462703 6.14931 -3.2422 -0.52684 0.110495 -0.0717419
30556 1 0.954512 0.102925 0.000348477 0.554593 -3.344 -0.141044 0.0368861 0.163043
30635 1 0.982007 0.127403 0.00344499 0.417757 -3.28648 -0.365679 0.00225481 0.0889583
238 1 0.0358781 0.15017 0.0269206 7.10542 -3.16536 0.526813 1.29307 0.915582
30640 1 0.00855381 0.152765 0.00501249 0.771269 -3.2778 -0.0566843 -0.334848 -0.298375
30719 1 0.0364484 0.174843 0.00763403 1.96449 -3.25009 0.153543 0.349613 -0.319716
317 1 0.00163714 0.17478 0.0247019 1.71534 -3.27269 0.340391 -0.275239 0.192929
30564 1 0.0693685 0.155843 0.0079019 8.12603 -3.31193 0.41488 0.177382 0.0935748
241 1 0.0632863 0.178812 0.0289653 6.99057 -3.32163 0.679057 -0.241225 0.120258
245 1 0.100212 0.180749 0.0108345 7.8345 -3.31227 -0.650709 -0.574482 0.324899
247 1 0.0980285 0.160974 0.0379374 7.84179 -3.20232 0.277186 0.335677 -0.340994
249 1 0.112785 0.14749 0.012302 9.61595 -3.28389 -0.0571291 0.465812 0.0421535
251 1 0.143692 0.156746 0.0415632 3.00731 -3.1688 -0.921107 -1.03265 0.211343
256 1 0.166145 0.179573 0.0408715 6.11553 -3.18451 0.731599 0.678794 0.0300108
250 1 0.141489 0.175003 0.00855225 8.28017 -3.25019 -0.578453 0.0138284 -0.0756845
255 1 0.167613 0.153437 0.0184167 8.59595 -3.20958 -0.00199244 -0.381097 -0.543305
253 1 0.147533 0.147513 0.993841 6.33851 -3.18637 -0.501074 0.304324 0.226075
252 1 0.126918 0.184147 0.0355242 7.0475 -3.20123 -0.301729 0.114597 0.410737
259 1 0.207703 0.146918 0.0126891 0.559701 -3.35498 0.0693908 -0.0992552 -0.316221
260 1 0.195676 0.177331 0.0185071 7.24459 -3.22892 -0.760409 0.0828116 -0.379823
264 1 0.234084 0.172419 0.0122421 0.391098 -3.29304 0.567315 -0.245482 -0.0423896
1861 1 0.234865 0.149132 0.0344225 1.32072 -3.2873 -0.569295 -0.499549 0.160807
1857 1 0.190253 0.154027 0.041142 1.75976 -3.20959 0.595808 -0.136275 0.153582
1858 1 0.217121 0.178849 0.0420549 2.65062 -3.17429 0.08067 -0.318103 0.0853895
263 1 0.250658 0.14161 0.00535803 0.668803 -3.305 -0.482308 -0.0747332 0.0939571
1865 1 0.27308 0.142383 0.0299091 0.79645 -3.28524 0.320116 0.460991 -0.133624
268 1 0.276 0.16676 0.0075893 0.638374 -3.27463 -0.292126 0.0871859 -0.118065
1866 1 0.297353 0.172809 0.0312636 1.70675 -3.27487 0.456121 -0.66312 0.63869
1862 1 0.257666 0.173898 0.0371935 0.639333 -3.30592 0.322332 0.496938 -0.0112685
272 1 0.315223 0.164154 0.00219511 0.876032 -3.38193 0.148143 -0.317822 0.0958271
1870 1 0.340775 0.167532 0.0282444 2.94945 -3.26473 -0.627543 -0.0868473 -0.699395
351 1 0.341183 0.189083 0.00583328 0.603421 -3.33202 -0.00697107 -0.142283 0.0467716
276 1 0.355636 0.154497 0.998464 7.55678 -3.33204 0.0536209 -0.0799211 0.13259
355 1 0.381788 0.179889 0.00248237 6.25589 -3.25821 -0.0896754 0.0839279 -0.561652
1874 1 0.374999 0.152565 0.0252369 2.08173 -3.29196 0.633639 -0.231747 -0.0649797
280 1 0.407419 0.155578 0.00246103 1.02805 -3.33038 -0.114551 -0.0185286 -0.0533804
1957 1 0.40064 0.177117 0.027525 2.08564 -3.18393 1.31657 -0.419162 0.128656
359 1 0.432805 0.181651 0.00586122 1.3794 -3.35163 -0.0727169 0.0203358 0.0802062
1878 1 0.434453 0.15534 0.0272901 1.03334 -3.34855 0.13723 0.525646 0.179007
284 1 0.469161 0.160885 0.00871211 0.976706 -3.27267 -0.822794 -0.4227 0.321468
1961 1 0.46224 0.182537 0.0296225 0.950635 -3.31269 -0.595508 0.232666 0.264493
1882 1 0.493127 0.161784 0.0350269 1.68711 -3.29245 0.41819 0.27495 -0.586412
363 1 0.492365 0.188233 0.0104712 0.675231 -3.24883 0.269206 -0.161067 0.117867
287 1 0.556839 0.144767 0.0136408 0.430088 -3.30716 0.414842 -0.113876 -0.143062
288 1 0.526644 0.165573 0.011673 0.790115 -3.32856 -0.486425 0.158299 -0.155164
1886 1 0.550152 0.165221 0.0356014 2.43222 -3.24604 0.883736 0.43026 0.4521
1965 1 0.522441 0.187417 0.0334163 1.66688 -3.32154 -0.7019 0.477037 0.149784
367 1 0.552994 0.193697 0.0144094 1.15238 -3.30104 -0.0389089 -0.460326 0.0285501
1889 1 0.584568 0.145744 0.0404238 0.765758 -3.31691 0.196114 0.398735 -0.473377
291 1 0.614846 0.1486 0.019831 0.536202 -3.32254 -0.0135855 -0.0872876 -0.00931874
292 1 0.583963 0.169843 0.017126 0.461471 -3.39859 -0.143864 0.0856134 -0.0402378
1890 1 0.61182 0.172702 0.041607 0.344489 -3.35836 -0.029227 -0.226165 -0.315851
1893 1 0.642593 0.149648 0.0420026 0.768935 -3.35621 -0.0354965 0.172409 0.165715
295 1 0.674051 0.154689 0.0220175 0.597582 -3.33918 0.137555 -0.347149 0.25488
296 1 0.642548 0.175123 0.0198355 0.549024 -3.31649 0.381578 -0.374626 0.572915
293 1 0.644623 0.151133 0.998005 1.16015 -3.28273 0.84678 -0.424846 0.0491766
294 1 0.675794 0.178266 0.00101347 0.716711 -3.25776 -0.0759672 -0.528948 -0.121503
299 1 0.734759 0.157755 0.0277545 0.471512 -3.31096 -0.517653 0.294996 -0.160307
300 1 0.702084 0.1802 0.0255024 0.524013 -3.30895 -0.0843047 -0.511925 -0.0261708
298 1 0.732654 0.180626 0.00473282 0.521969 -3.36774 0.448774 -0.181592 0.284253
297 1 0.705327 0.157012 0.00280941 0.96393 -3.34078 0.264357 -0.487525 0.221085
304 1 0.761273 0.183017 0.0301111 0.314474 -3.30689 -0.0424618 -0.342116 0.403501
303 1 0.794293 0.161369 0.0323893 0.908087 -3.33594 -0.550044 -0.0793644 0.268939
302 1 0.790279 0.184397 0.0101242 1.30661 -3.28519 1.35867 -0.0891186 -0.103694
301 1 0.766071 0.159534 0.00792888 0.291358 -3.30178 -0.313643 -0.181876 0.149952
308 1 0.821118 0.187307 0.0350383 0.943985 -3.30896 -0.673948 -0.54393 -0.0822221
305 1 0.824378 0.16151 0.0142727 0.803046 -3.32252 0.268304 0.39426 -0.681605
307 1 0.850627 0.163671 0.0366701 0.767801 -3.3464 0.359233 0.225544 0.497507
306 1 0.851496 0.188741 0.0155346 0.679887 -3.3455 0.161963 -0.436502 -0.241326
232 1 0.884277 0.142439 0.0392254 0.185469 -3.31223 0.0965059 0.315332 0.270295
230 1 0.917007 0.145898 0.0194466 0.737097 -3.30827 -0.183216 -0.571093 0.3429
309 1 0.883218 0.166214 0.0169865 0.549551 -3.28035 -0.0638352 0.106959 0.457358
311 1 0.908112 0.167891 0.0401299 2.57661 -3.29882 0.631549 0.0586311 0.709527
236 1 0.944042 0.14711 0.0448715 0.518146 -3.28703 -0.0873388 -0.61479 -0.534805
234 1 0.977074 0.147136 0.0253098 1.34825 -3.31583 -0.316849 0.612165 -0.21158
313 1 0.943065 0.169624 0.0234738 1.01904 -3.36372 0.498062 0.212155 -0.237872
30715 1 0.97672 0.173829 0.00134477 0.739689 -3.33971 -0.154763 -0.229565 0.00340995
242 1 0.0625927 0.201664 0.00712813 0.911774 -3.26085 0.54834 -0.111328 0.494681
318 1 0.0330301 0.199734 0.0274467 0.770615 -3.28064 0.0150365 0.02887 0.136471
323 1 0.0603171 0.224708 0.0313061 1.39376 -3.30805 -0.697124 -0.564513 -0.0620279
321 1 0.0300059 0.221202 0.00595697 0.980567 -3.23862 0.277622 1.00894 0.462705
30720 1 0.00575578 0.197707 0.003918 0.438935 -3.24523 -0.52915 0.0244181 0.145084
248 1 0.0935053 0.203724 0.0318049 5.46817 -3.32941 -0.501738 -0.144392 0.210521
246 1 0.125093 0.204221 0.0126821 9.27262 -3.2534 0.294952 0.671157 -0.096099
325 1 0.0880932 0.225424 0.00944111 1.5684 -3.30252 0.698475 0.326653 -0.139704
327 1 0.119299 0.228722 0.0335161 5.71003 -3.2967 -0.312298 0.0283762 -0.0372935
329 1 0.152175 0.23151 0.0174049 9.07405 -3.31697 0.183264 0.00518293 -0.547525
331 1 0.152149 0.209141 0.0410724 7.08685 -3.27572 -0.185151 0.0436832 -0.0704149
333 1 0.166499 0.201658 0.0122191 7.29839 -3.31049 0.210261 -0.092211 0.219144
336 1 0.176702 0.234123 0.04397 5.6578 -3.21973 -0.0150061 0.0456027 0.322067
335 1 0.193273 0.203727 0.0418866 5.85897 -3.31245 -0.121278 0.123137 -0.00848508
339 1 0.220762 0.201336 0.017597 6.17759 -3.09855 -0.991793 0.181083 -0.880299
344 1 0.243265 0.226862 0.0173491 0.875121 -3.2706 -0.0222167 0.403987 0.33968
334 1 0.19677 0.227755 0.0199044 6.52585 -3.21662 -0.0140123 -0.470671 -1.31348
340 1 0.21843 0.229546 0.0434951 1.8706 -3.23125 0.343836 0.46198 0.380443
347 1 0.299355 0.193683 0.0103397 0.737728 -3.29865 0.23613 0.354311 -0.622018
343 1 0.259714 0.198251 0.0135526 0.380199 -3.30006 0.309249 -0.367144 -0.318003
348 1 0.284644 0.224793 0.0164723 1.05325 -3.31061 0.0598916 -0.246363 -0.537058
1945 1 0.283451 0.202525 0.0379708 0.682365 -3.31817 -0.359067 -0.469899 0.346435
1946 1 0.30852 0.22738 0.0401429 0.249003 -3.2065 -0.482941 -0.113927 -0.282126
1941 1 0.240042 0.204317 0.0402677 1.31338 -3.19241 1.00519 -0.0358034 1.36096
1942 1 0.266279 0.230545 0.0449632 1.67412 -3.25843 -0.381298 0.297194 -0.679659
1953 1 0.36843 0.192289 0.0286202 3.86847 -3.1091 -1.37615 -0.464459 0.175635
1949 1 0.324916 0.197583 0.0342723 0.647562 -3.30851 -0.0827175 -0.0421399 -0.381894
352 1 0.325864 0.219118 0.0100629 0.670829 -3.33221 0.00572626 -0.124999 0.576462
1950 1 0.347257 0.226504 0.0351978 3.7559 -3.23215 0.569831 -1.01654 -0.374324
356 1 0.367331 0.214818 0.00928899 1.49897 -3.25965 -0.472349 0.111336 -0.822401
1954 1 0.388422 0.215822 0.0335385 2.41622 -3.13554 0.822714 1.07423 -0.556942
360 1 0.406245 0.206475 0.00470039 6.46292 -3.30405 0.146888 -0.0147337 -0.0052799
439 1 0.432677 0.231837 0.00654659 6.44619 -3.24871 -0.288176 0.232637 -0.184947
1958 1 0.429095 0.204212 0.0296445 2.99478 -3.33893 0.172891 -0.0121247 0.0229698
364 1 0.45892 0.209535 0.00777968 1.32632 -3.29473 0.274869 -0.39094 0.281823
2041 1 0.456043 0.234727 0.031548 8.14623 -3.30881 0.153612 -0.628917 0.00179841
1962 1 0.487681 0.208317 0.0327157 1.11279 -3.31168 0.0469553 0.577165 0.0334436
443 1 0.488095 0.234141 0.012071 1.10704 -3.27107 -0.32376 -0.243045 -0.464776
2045 1 0.51393 0.235155 0.0358862 0.42287 -3.27507 0.202119 0.0537167 -0.22795
368 1 0.519326 0.214246 0.0125254 0.695563 -3.2719 -0.0460705 -0.164754 0.350467
1966 1 0.54684 0.215797 0.0375653 0.773127 -3.3089 -0.0124248 -0.512146 -0.205063
447 1 0.545897 0.237202 0.0162107 1.48559 -3.3298 0.352492 0.5591 -0.335777
1969 1 0.57995 0.194364 0.0379933 0.686004 -3.3089 -0.0193778 -0.313976 0.0671719
371 1 0.613111 0.194591 0.0187056 0.822812 -3.29406 -0.439204 0.338373 -0.109255
372 1 0.581221 0.216112 0.0157226 1.07176 -3.29091 -0.36684 0.382481 -0.0328549
1970 1 0.605458 0.22031 0.0384684 1.32774 -3.30283 0.0447625 -0.0928235 0.771228
1973 1 0.636958 0.200101 0.043397 1.59433 -3.28658 0.359831 -0.778388 -0.360553
375 1 0.669937 0.199992 0.0224699 0.295225 -3.3344 -0.0953547 0.033065 0.563376
376 1 0.636827 0.221817 0.0202351 0.623487 -3.31466 0.649096 -0.125311 -0.183071
373 1 0.645021 0.197975 0.998816 0.216891 -3.27202 -0.374505 0.0504532 -0.106089
374 1 0.672598 0.222572 1.0018 0.876126 -3.34218 -0.247338 0.338463 -0.310061
379 1 0.729922 0.201881 0.0291093 0.985423 -3.33499 -0.237323 0.710371 -0.415415
380 1 0.697272 0.224278 0.0257392 0.234244 -3.36287 0.164302 0.0867585 -0.200076
378 1 0.73043 0.226142 0.00572262 0.193452 -3.33243 -0.443752 0.0806179 0.14807
377 1 0.703224 0.201844 0.00243923 0.336343 -3.31842 0.00400203 0.231991 0.149732
384 1 0.756044 0.227155 0.0290959 0.727115 -3.32259 0.0202892 0.214071 0.438458
381 1 0.762732 0.204861 0.00839728 0.580437 -3.24502 -0.499607 0.365011 -0.393781
383 1 0.787928 0.20804 0.0313101 0.472439 -3.31537 0.146472 -0.0776409 0.498525
382 1 0.789363 0.232318 0.00926119 0.742133 -3.33911 0.0615571 -0.513621 0.213654
388 1 0.814329 0.233093 0.035322 0.638444 -3.36187 0.193329 -0.187612 -0.311903
385 1 0.82066 0.210477 0.0130912 0.559945 -3.33555 -0.27768 -0.378186 -0.382994
387 1 0.847247 0.209915 0.0384462 1.33015 -3.24728 -0.0480841 0.653667 -0.331204
392 1 0.873194 0.238375 0.0366361 2.24931 -3.26013 0.854518 -0.838021 0.281006
386 1 0.8469 0.233336 0.013029 1.29375 -3.31345 0.324243 0.361475 0.294374
312 1 0.878771 0.189864 0.0403914 0.605612 -3.29717 0.136564 -0.562618 -0.504967
310 1 0.912977 0.191775 0.0209071 1.28761 -3.28594 -0.24391 -0.12748 -0.396362
389 1 0.878199 0.213139 0.0172064 0.545803 -3.35886 0.209131 -0.0294869 -0.268154
391 1 0.905251 0.214171 0.0392761 1.27025 -3.32263 0.346074 0.597687 0.649243
393 1 0.94003 0.21629 0.0208529 0.525326 -3.36058 -0.160944 0.323965 -0.11958
316 1 0.939971 0.194162 0.0441105 0.788884 -3.29095 -0.348661 -0.359897 -0.47904
314 1 0.971688 0.19723 0.0220458 1.66129 -3.31565 -0.344587 -0.64705 0.211178
397 1 0.99791 0.218694 0.0270991 2.06973 -3.28703 0.334658 0.846513 -0.618974
30795 1 0.973073 0.2191 -0.00136075 2.30254 -3.33161 -0.342015 0.494379 0.782542
324 1 0.0254634 0.24552 0.0255054 0.862635 -3.37238 -0.211903 -0.237929 0.577802
322 1 0.0570208 0.245916 0.00762609 0.765745 -3.34591 0.285638 0.3211 -0.495253
403 1 0.0547069 0.268902 0.0293552 0.850242 -3.35626 -0.246206 0.121888 -0.116949
401 1 0.0252056 0.268359 0.00398077 0.349501 -3.3371 0.288969 0.0213724 -0.0137083
328 1 0.0859043 0.247621 0.0307962 0.662793 -3.27837 0.303804 0.562252 0.0928305
326 1 0.117296 0.253219 0.00979479 1.77946 -3.29232 0.463648 -0.78394 0.391142
405 1 0.0858872 0.27089 0.00766535 0.874981 -3.31839 -0.75148 0.243595 0.221606
407 1 0.111193 0.274478 0.0328796 0.726849 -3.35439 0.105704 -0.136597 0.221733
332 1 0.145906 0.254519 0.0377959 4.87891 -3.3167 -0.130929 0.398488 -0.261272
330 1 0.180445 0.256155 0.0192386 8.16532 -3.27966 -0.310567 0.237709 0.0713834
409 1 0.14679 0.276395 0.0133867 0.932875 -3.28392 -0.42077 -0.0633612 0.274892
411 1 0.172489 0.281702 0.0369761 6.41382 -3.32785 0.0156767 -0.200483 0.363806