ITEM: TIMESTEP
8000
ITEM: NUMBER OF ATOMS
32000
ITEM: BOX BOUNDS pp pp pp
3.1110671077447307e+00 7.7888932892255312e+01
-1.5546230054545447e+00 8.2554623005454829e+01
-1.5502909015644164e+00 8.2550290901563812e+01
ITEM: ATOMS id type xs ys zs c_csym c_peratom fx fy fz
8 1 0.0478818 0.0247167 0.024879 0.4674 -3.36061 0.339647 0.0521203 0.0552711
4 1 1.00023 0.0266448 0.0241795 0.437418 -3.32281 0.254289 0.0780905 -0.0328663
3 1 0.0232239 -9.24104e-05 0.0243467 0.405315 -3.34318 0.214947 0.0806172 0.0490201
1605 1 0.048097 -0.00258965 0.0506629 1.53591 -3.25272 0.550037 0.865409 -0.577326
12 1 0.100232 0.0249047 0.0263278 0.42217 -3.33202 -0.183175 -0.0984421 -0.387857
87 1 0.0753215 0.0503707 0.0256134 0.470703 -3.33307 -0.165338 -0.11675 -0.00668317
1606 1 0.0734929 0.0241071 0.0505184 0.401862 -3.37674 -0.00255769 0.0607395 -0.195929
7 1 0.0731858 -0.00026114 0.0256946 0.366365 -3.34114 0.341249 0.509983 0.122494
16 1 0.147142 0.0271923 0.0247528 2.37009 -3.29807 0.496295 -0.564234 -0.066446
1610 1 0.12651 0.0251739 0.050646 0.711726 -3.27614 -0.165307 0.123416 0.0338224
10 1 0.123994 0.0240683 0.999383 0.834305 -3.27712 -0.177491 0.248343 0.31066
11 1 0.124427 0.999861 0.0265747 0.489611 -3.35244 0.43915 0.0782325 -0.360148
20 1 0.201608 0.025261 0.0249606 0.67883 -3.31856 0.200558 -0.19255 0.144858
24 1 0.249005 0.0253662 0.0256677 0.960384 -3.35715 0.332647 -0.184519 -0.344997
1618 1 0.226351 0.0253404 0.0502217 0.309172 -3.29032 -0.34575 -0.214656 -0.0589107
23 1 0.278488 0.99995 0.0239941 1.60779 -3.33634 -0.635534 0.283903 0.320053
103 1 0.276441 0.0499822 0.0243542 0.462759 -3.36307 -0.322825 0.148686 0.355629
99 1 0.22505 0.0505724 0.0230628 0.804608 -3.34746 0.132801 -0.0157183 0.320942
28 1 0.301315 0.0259186 0.0272662 1.11898 -3.28544 -0.0526293 -0.429895 -0.303773
1705 1 0.30017 0.0495359 0.0504989 0.362063 -3.32765 -0.264622 0.00801332 0.0352599
107 1 0.325912 0.0491469 0.0241875 0.44194 -3.28266 0.0132633 0.249446 0.459521
27 1 0.325952 -0.0013369 0.0249315 0.494381 -3.32884 -0.0768521 0.414971 0.208085
105 1 0.301488 0.049693 5.62694e-05 0.256631 -3.3332 -0.1279 0.291497 -0.297898
32 1 0.351053 0.0255755 0.0253216 0.272712 -3.28757 -0.178539 -0.432696 0.119117
30 1 0.373102 0.0253351 1.00009 1.23785 -3.2952 0.582477 -0.340248 0.220767
31 1 0.37686 0.999852 0.0251599 0.390978 -3.34718 -0.391612 0.344257 -0.278074
1630 1 0.373905 0.025184 0.0502975 0.874908 -3.30217 0.498563 -0.189777 0.00394644
1629 1 0.350849 -0.0019338 0.0502197 0.53053 -3.32595 -0.0920891 0.50806 -0.093657
36 1 0.402596 0.0263149 0.0253095 1.14278 -3.28464 -0.754151 0.00532197 0.197638
35 1 0.424431 0.000935334 0.0259465 0.557479 -3.35076 0.520251 -0.33566 -0.354308
1633 1 0.399718 1.00109 0.0490727 0.790885 -3.27265 -0.063207 -0.327737 0.412098
40 1 0.44988 0.026362 0.0249594 0.26269 -3.34798 -0.127502 -0.371657 0.00246382
1717 1 0.44955 0.0499083 0.0508948 0.702568 -3.32062 0.169562 0.285609 0.0292503
44 1 0.500894 0.0276336 0.025693 0.743839 -3.29899 -0.236979 -0.536405 -0.0639684
39 1 0.476792 0.00036219 0.0241787 0.590433 -3.36241 0.0823145 0.309679 0.296773
1638 1 0.474957 0.0270975 0.0488055 0.774189 -3.29028 0.233999 -0.317918 0.139856
38 1 0.476295 0.0272336 0.000857081 0.420012 -3.25242 -0.0226628 -0.372375 0.0713828
48 1 0.551052 0.0243664 0.0263425 0.808398 -3.30407 -0.0786257 0.423713 -0.450219
43 1 0.523289 1.0002 0.0239328 0.718397 -3.38318 0.405818 -0.0815979 0.241604
1645 1 0.548948 -0.000464584 0.0510535 0.541167 -3.31343 0.111187 -0.02195 -0.388805
52 1 0.599774 0.0247072 0.0251722 0.506692 -3.35632 -0.0506761 -0.222736 -0.313352
47 1 0.57298 1.0003 0.0249753 0.857918 -3.30457 0.445994 -0.306036 -0.104327
1646 1 0.576635 0.0229138 0.0510468 1.11915 -3.2818 -0.363325 0.507194 -0.0642361
1649 1 0.599248 0.998947 0.049716 0.398485 -3.29503 0.56211 0.0453975 -0.0103124
49 1 0.600337 1.0025 0.999251 1.31519 -3.35344 -0.0495883 -0.504453 0.462374
56 1 0.650232 0.024448 0.0264644 0.802507 -3.32054 0.304079 0.105596 -0.380869
1653 1 0.649005 1.00086 0.05146 1.40634 -3.25616 0.931351 -0.565299 -0.788487
131 1 0.625043 0.0482822 0.0247922 0.537096 -3.32461 0.295441 0.264876 -0.0665493
51 1 0.626693 1.00009 0.0251974 0.539697 -3.31416 -0.49543 0.157926 -0.11364
1650 1 0.6253 0.0244283 0.0502669 0.187678 -3.2872 -0.519342 0.170155 -0.211035
55 1 0.675562 1.00034 0.0243546 0.571413 -3.33912 -0.0169292 0.0404692 0.464629
60 1 0.700939 0.0269526 0.0239792 1.37836 -3.31566 -0.155642 -0.702988 -0.109334
1654 1 0.677272 0.0236771 0.0492676 0.85502 -3.35597 -0.0710458 -0.14925 0.0333684
64 1 0.748953 0.0255388 0.0245758 0.824719 -3.34793 -0.033681 -0.120511 0.305396
59 1 0.724869 -0.000461454 0.0231663 1.05519 -3.31396 0.315392 -0.0326775 0.315994
63 1 0.77328 -0.00112156 0.0259713 0.739645 -3.22324 0.812048 0.0878837 0.772248
58 1 0.725101 0.0224582 0.999322 1.2508 -3.24651 -0.0311883 0.400224 0.172365
1661 1 0.748764 1.00027 0.049894 0.344692 -3.34311 -0.0895577 0.0718703 -0.0933527
68 1 0.800224 0.0257286 0.0260155 0.496483 -3.29937 -0.293293 0.164306 0.280931
147 1 0.825265 0.0516825 0.0257705 0.724839 -3.29592 0.123408 -0.495588 0.199811
67 1 0.822513 -0.00015603 0.0260796 0.650689 -3.3231 0.277582 -0.257339 0.259947
1665 1 0.796986 1.00292 0.0503593 2.21868 -3.29474 0.836286 -0.669652 0.0296948
1666 1 0.826827 0.0262625 0.0498107 1.38173 -3.36214 -0.351199 0.108343 0.352019
1745 1 0.797934 0.0502778 0.0513423 0.68362 -3.32331 0.607937 0.118069 -0.312133
66 1 0.823836 0.0227422 1.0028 1.85565 -3.2649 -0.166343 0.730278 -0.910793
72 1 0.850058 0.0235867 0.0247753 0.936781 -3.27615 0.00532971 0.722732 0.23544
151 1 0.876285 0.0511713 0.025445 0.447364 -3.25867 -0.411552 -0.119473 -0.176868
71 1 0.874086 0.000874874 0.0242953 0.628572 -3.32448 0.511343 -0.324637 0.360735
69 1 0.848897 1.00056 0.000596646 0.579591 -3.29312 0.314755 -0.632948 -0.0596611
76 1 0.901319 0.0280051 0.0256838 0.813933 -3.32726 -0.200793 -0.609744 -0.142821
75 1 0.925551 1.0014 0.0256792 0.228554 -3.27628 0.308361 0.151533 -0.60698
80 1 0.949821 0.0269817 0.0242645 0.320326 -3.28993 -0.51712 0.153926 0.292314
79 1 0.974253 0.00392815 0.0243393 1.32547 -3.29359 0.0636106 -0.970466 0.0573751
157 1 0.951432 0.0522327 0.999371 0.701813 -3.23108 -0.490473 0.0831724 0.739226
78 1 0.972467 0.0273141 1.00034 1.10594 -3.24677 0.792912 -0.144787 -0.458625
77 1 0.949022 0.00142967 0.999644 0.234087 -3.34892 -0.20208 -0.238012 0.0502612
83 1 0.0255966 0.0517816 0.0265696 1.20046 -3.23823 -0.182268 -0.397559 -0.592005
88 1 0.0486138 0.076029 0.0231703 0.935119 -3.29393 0.408608 0.148807 0.464128
84 1 1.0008 0.0752888 0.0254676 0.423785 -3.3202 -0.214733 0.344645 -0.165382
1765 1 0.0501185 0.101639 0.0509075 0.597 -3.33869 0.0792683 -0.271974 -0.216945
165 1 0.0496287 0.10235 0.000322843 0.675789 -3.29907 -0.480733 -0.277494 -0.556518
85 1 0.0507629 0.0499857 0.000769451 0.600723 -3.36216 -0.234101 -0.0345177 -0.273199
82 1 0.0249826 0.0767497 -0.00102167 0.48638 -3.31021 -0.0842791 -0.110879 0.146454
92 1 0.0983443 0.0759751 0.024662 0.602082 -3.32294 -0.0886271 -0.185531 -0.200768
1686 1 0.0732157 0.0754153 0.0499927 0.582043 -3.3728 0.0778489 -0.0241867 -0.480556
86 1 0.0738625 0.0761309 -0.000909532 0.467056 -3.31356 0.395654 -0.186526 0.201495
91 1 0.122978 0.0508087 0.0242743 1.07474 -3.30323 0.154242 0.132864 -0.175906
96 1 0.150593 0.0740319 0.0247156 0.511152 -3.28746 -0.192014 0.250648 -0.303717
1690 1 0.124244 0.0748029 0.0487125 0.358155 -3.33127 0.445738 -0.0610139 0.302037
95 1 0.176418 0.0478737 0.025728 1.57369 -3.25 0.0329926 0.444269 -0.231529
100 1 0.201404 0.0755339 0.024695 0.242301 -3.3093 -0.30359 -0.155014 0.0200586
175 1 0.174954 0.100437 0.0252824 0.524295 -3.37186 0.00920239 -0.314538 -0.129083
1777 1 0.203105 0.100105 0.0490896 0.980188 -3.3044 -0.579977 0.00294995 0.246582
104 1 0.251269 0.0760226 0.0253311 0.353466 -3.29136 0.0528985 -0.435261 0.198277
1701 1 0.249825 0.0499409 0.0500353 0.340936 -3.33368 0.506533 0.227973 -0.240248
179 1 0.225719 0.100664 0.0251117 0.280836 -3.31802 0.189134 0.0954011 -0.206026
183 1 0.277123 0.0997296 0.0251853 0.41094 -3.35208 0.0637417 0.115096 -0.0547174
1698 1 0.226472 0.0748296 0.0487611 0.577021 -3.29672 -0.0433066 -0.0457978 0.401351
1702 1 0.276446 0.0762397 0.0500823 0.549769 -3.33146 -0.0145732 -0.515959 -0.286335
108 1 0.302819 0.0744863 0.0251662 0.607057 -3.32438 -0.600864 0.179362 -0.231131
187 1 0.32683 0.101171 0.0240798 0.757762 -3.28351 -0.25807 -0.304236 0.207812
106 1 0.326308 0.0748621 0.000315076 0.324561 -3.26937 -0.361867 -0.40847 -0.270279
111 1 0.376512 0.0495616 0.0257685 0.514544 -3.31042 0.269949 0.0446853 -0.229135
112 1 0.352331 0.0742401 0.0233233 0.794866 -3.29187 -0.385807 0.371949 0.682368
191 1 0.377432 0.101576 0.0227514 1.67147 -3.31496 0.0471111 -0.598449 0.369237
115 1 0.426624 0.0516613 0.0258622 0.738498 -3.28806 -0.119758 -0.215712 -0.0522979
116 1 0.401441 0.0749597 0.0225193 0.920231 -3.23206 -0.651086 0.157835 0.594159
119 1 0.474053 0.0511548 0.0250633 0.353569 -3.29463 0.187051 0.111718 0.192547
120 1 0.45179 0.0770877 0.0244221 0.96193 -3.27267 -0.298091 0.147028 0.203763
197 1 0.448253 0.100403 0.998971 0.788973 -3.30927 0.117745 0.252884 0.27578
124 1 0.500248 0.0765282 0.0245336 0.492751 -3.36084 0.125449 -0.155234 0.0303428
1718 1 0.475021 0.0754212 0.0490238 0.704585 -3.30711 -0.116606 0.260776 0.224006
123 1 0.525715 0.0498647 0.0260737 0.739983 -3.3337 0.330067 0.249682 -0.450347
128 1 0.551896 0.0735437 0.0226434 1.28878 -3.30697 -0.574369 0.304721 0.495105
1725 1 0.552681 0.0493631 0.0509056 0.826268 -3.32074 0.0452049 0.171439 -0.506803
1722 1 0.527115 0.0743536 0.0471121 1.82701 -3.34736 -0.158684 0.210502 0.546214
1801 1 0.502788 0.100017 0.0522826 1.65112 -3.30554 -0.356806 0.0818534 -0.84794
122 1 0.524818 0.0761092 -0.00278662 1.46819 -3.26344 -0.224307 -0.344773 0.649223
127 1 0.576158 0.0510226 0.0248047 0.798643 -3.29817 -0.20242 -0.740127 -0.366121
132 1 0.601625 0.0742572 0.0240603 0.29221 -3.27422 0.152591 -0.0526498 0.346034
126 1 0.57648 0.0737817 1.00001 0.250566 -3.26213 -0.0736598 -0.0349484 -0.246694
207 1 0.57611 0.0996419 0.0261562 0.553262 -3.27443 -0.151843 -0.222275 -0.282253
1729 1 0.599815 0.0495825 0.0482048 1.01293 -3.29564 0.297523 -0.361 0.642941
136 1 0.649936 0.0745331 0.0253106 0.264196 -3.33643 0.322653 0.0283147 -0.257621
1730 1 0.626964 0.0733262 0.0499162 0.465673 -3.28309 -0.191033 0.249644 -0.239761
1733 1 0.65105 0.0491168 0.0504373 0.323179 -3.30178 0.160862 -0.000138343 -0.128122
135 1 0.674871 0.0499365 0.0249038 0.273864 -3.26211 -0.0104195 0.06429 -0.0692563
140 1 0.69997 0.0750466 0.0252777 0.426036 -3.28588 -0.277628 -0.388598 -0.0796785
134 1 0.676609 0.0753941 0.998095 1.09163 -3.30986 -0.2877 -0.0201997 0.607142
137 1 0.699415 0.0488704 0.999374 0.207953 -3.35794 0.0892235 0.00614756 -0.069692
143 1 0.773922 0.0498589 0.0255074 0.621598 -3.36204 0.216347 0.215125 -0.295721
139 1 0.725342 0.0505887 0.0244424 0.756022 -3.26559 0.155022 -0.0950111 0.154771
1741 1 0.751756 0.0490498 0.0513355 1.59838 -3.2396 -0.528445 0.342741 -0.242013
144 1 0.750779 0.0756471 0.0227563 1.39597 -3.27763 -0.514435 -0.408398 0.394034
142 1 0.776725 0.0747717 1.00065 0.821543 -3.33575 -0.235756 -0.320522 -0.379026
138 1 0.724064 0.0734684 1.00003 0.327954 -3.30675 -0.216231 0.458675 -0.3392
219 1 0.722942 0.0992236 0.0243493 0.77955 -3.27307 0.856414 0.188275 0.241693
223 1 0.773782 0.099282 0.0239652 0.675043 -3.24502 0.47664 0.321088 0.204932
1821 1 0.750203 0.0999272 0.0496196 0.681888 -3.32747 -0.318346 0.174985 -0.210201
148 1 0.803118 0.0768902 0.0254156 2.2125 -3.28803 -0.704925 -0.412168 -0.27163
152 1 0.84814 0.0771059 0.0232322 1.65154 -3.29066 0.51076 -0.382703 0.594733
1750 1 0.874981 0.0750482 0.049646 0.601963 -3.3271 0.109975 0.708012 0.0486464
231 1 0.873677 0.101864 0.0263166 1.03621 -3.33442 0.381839 -0.240852 -0.398074
1749 1 0.851488 0.0517492 0.0482922 1.44918 -3.28663 -0.531496 -0.21096 0.545741
155 1 0.926258 0.0518795 0.0240641 0.449013 -3.33065 -0.124044 -0.0318006 -0.0349079
156 1 0.899791 0.0764256 0.0238767 0.250767 -3.35694 0.120854 0.206953 0.124868
1754 1 0.925382 0.0761889 0.04822 0.571125 -3.31373 0.00756296 0.26442 0.295564
154 1 0.925236 0.0756812 -0.00184846 0.580422 -3.28456 -0.162473 0.0890219 0.464399
159 1 0.975741 0.050843 0.0253856 0.443028 -3.32326 -0.406628 0.339991 -0.140666
81 1 1.00162 0.0502867 -0.00101829 0.926025 -3.39318 -0.428204 0.0468575 0.308909
161 1 1.00057 0.102057 1.00116 0.524032 -3.30928 -0.0226256 0.015615 -0.38942
160 1 0.949516 0.0771395 0.0230421 0.818157 -3.28073 0.143552 -0.185513 0.569636
158 1 0.974518 0.0790695 1.00167 2.1709 -3.31299 0.438306 -0.476285 -0.474088
239 1 0.97584 0.102618 0.0250871 0.596527 -3.32617 -0.154124 -0.0752592 0.120159
1758 1 0.974125 0.0750461 0.0505242 0.531037 -3.34381 0.183911 0.212021 -0.291187
1761 1 1.0007 0.100285 0.0515173 0.328777 -3.32716 -0.274902 -0.0580062 -0.281457
163 1 0.0239265 0.102069 0.0259338 0.597258 -3.28052 0.158891 -0.43769 -0.0173344
168 1 0.0491523 0.1245 0.0252563 0.646537 -3.27283 0.0430984 0.770198 0.0663662
1762 1 0.0253433 0.125634 0.0517958 0.487579 -3.30787 -0.336487 0.0473545 -0.423296
243 1 0.0244436 0.149014 0.0268633 1.39483 -3.24682 0.700907 0.513744 -0.363617
245 1 0.0486044 0.151794 0.999265 1.02165 -3.27908 0.230127 -0.650655 0.220808
167 1 0.073139 0.101757 0.0237988 1.00971 -3.23989 0.402605 -0.765589 0.3783
172 1 0.0998592 0.122168 0.0237289 1.63277 -3.26335 0.378854 0.755922 0.141102
1766 1 0.0779789 0.124705 0.0495783 1.46039 -3.31658 -0.653671 0.174975 0.0664968
1769 1 0.0997767 0.0992822 0.0499122 0.691038 -3.27289 -0.25764 0.0611094 -0.378084
249 1 0.101092 0.147213 -0.00164835 1.58889 -3.26926 -0.15407 0.990913 0.511602
171 1 0.124511 0.0981077 0.0248708 0.951719 -3.30589 0.686249 0.477234 -0.0237377
176 1 0.151868 0.125752 0.0235859 0.501827 -3.31454 -0.257057 -0.386599 0.213673
251 1 0.126142 0.151222 0.022938 0.677895 -3.34321 -0.0945245 -0.257312 0.0769077
1773 1 0.149981 0.100573 0.0506339 0.70108 -3.36083 -0.0972754 -0.145455 -0.294849
170 1 0.125326 0.124108 1.0005 0.648172 -3.29321 0.247152 -0.0265614 -0.0870793
253 1 0.151851 0.149663 -0.00166809 0.538381 -3.27239 -0.71364 0.276582 0.392502
180 1 0.198688 0.12458 0.0248694 0.707498 -3.33523 0.405564 0.14218 0.0568152
1774 1 0.177101 0.125173 0.0508791 1.40394 -3.25932 -0.341947 0.00292417 -0.262494
257 1 0.200089 0.149111 1.00134 0.779787 -3.27228 0.690543 -0.0329952 -0.124202
255 1 0.17487 0.151626 0.0234974 1.00747 -3.21371 0.416005 -0.193757 0.296888
174 1 0.175817 0.124341 -0.000282536 0.488464 -3.29672 0.137112 -0.343766 -0.116005
184 1 0.251848 0.124937 0.0261531 0.503203 -3.29246 -0.271594 -0.125789 -0.0357956
259 1 0.226325 0.148523 0.0252888 0.53335 -3.34133 -0.304224 0.273933 0.173321
1778 1 0.225907 0.125825 0.0498883 0.352825 -3.30925 -0.0350928 -0.164806 -0.00759056
261 1 0.249212 0.147673 0.000904164 1.15327 -3.27404 0.283803 0.538345 -0.11781
182 1 0.274855 0.126099 1.00215 1.15802 -3.28019 0.392421 -0.522741 -0.335557
178 1 0.223955 0.123725 0.999821 0.897275 -3.33134 0.338906 -0.0651505 0.288263
188 1 0.301323 0.12722 0.0249278 0.805036 -3.27859 -0.369417 -0.41791 -0.0936497
1865 1 0.301021 0.150875 0.049012 0.45519 -3.28813 0.0895337 0.178323 0.0827653
186 1 0.325842 0.12583 1.00053 0.649818 -3.31058 0.140238 -0.059839 0.0523359
192 1 0.352759 0.123751 0.0265697 2.04793 -3.25706 -0.175834 0.39529 -0.232664
271 1 0.37411 0.15204 0.0256858 0.628492 -3.30637 0.260938 -0.316137 -0.212517
195 1 0.423229 0.101007 0.0240153 1.15955 -3.34801 0.328102 0.0777333 -0.0577133
196 1 0.401369 0.126312 0.0253426 0.642631 -3.33818 -0.331244 0.278769 -0.152556
194 1 0.425711 0.126995 0.99835 0.663609 -3.32721 -0.306768 -0.293661 0.57639
199 1 0.477112 0.102164 0.0265665 1.2325 -3.33899 -0.288192 -0.265297 -0.324027
200 1 0.449478 0.126644 0.0254246 0.667122 -3.34177 -0.197756 -0.360457 -0.23845
279 1 0.476607 0.14944 0.0250557 0.295067 -3.32697 0.0924997 0.0612391 -0.0615802
204 1 0.502332 0.125261 0.0262185 0.426615 -3.26075 -0.498126 0.0270291 -0.490719
1798 1 0.475586 0.123935 0.051395 0.445082 -3.27579 0.0631284 0.201228 -0.023952
1805 1 0.551472 0.0985737 0.0495635 0.276192 -3.29665 -0.236958 0.042237 0.0536389
203 1 0.527142 0.100881 0.0244251 0.543834 -3.23646 -0.637048 -0.638115 0.472549
1802 1 0.527084 0.12508 0.0486619 1.1741 -3.28725 0.384192 -0.211922 0.811953
208 1 0.55136 0.123858 0.0243259 0.493392 -3.21732 0.458964 0.250375 0.143075
201 1 0.501409 0.100641 0.000614558 0.362037 -3.33334 -0.239484 0.253245 -0.15621
212 1 0.600228 0.124837 0.0255025 0.221065 -3.3173 0.0659254 -0.14347 0.163608
287 1 0.574067 0.150025 0.0252377 0.335025 -3.34849 -0.0613391 -0.0299848 0.313617
1809 1 0.600432 0.0987115 0.0502015 0.360781 -3.28379 0.833798 0.397033 -0.250823
211 1 0.626605 0.0988829 0.0247434 0.435427 -3.29472 -0.365053 0.104696 0.347486
1813 1 0.649608 0.10015 0.0503558 0.197269 -3.34296 0.194537 0.0187071 0.0166824
1810 1 0.625136 0.125396 0.0505946 0.24121 -3.31538 0.0146056 -0.261178 -0.351569
216 1 0.649724 0.124268 0.0247221 0.322412 -3.29747 0.468343 0.22021 0.600431
210 1 0.625624 0.124511 1.00238 1.00686 -3.29342 -0.423521 0.0586017 -0.807684
215 1 0.676465 0.0996331 0.0251786 0.363815 -3.33003 -0.590217 0.0148488 -0.0462649
220 1 0.700025 0.125311 0.0259823 0.688206 -3.30193 -0.418656 0.0157069 -0.806278
224 1 0.749082 0.125722 0.0223788 0.89062 -3.25365 -0.487838 -0.711413 0.488215
222 1 0.773441 0.123743 0.998883 0.532869 -3.28259 0.518191 0.401894 -0.300306
1818 1 0.724861 0.124288 0.0477573 0.53011 -3.31059 0.133826 -0.182602 0.552823
1822 1 0.777034 0.123523 0.0471188 1.67651 -3.30985 -0.601181 0.469768 0.431198
1901 1 0.750305 0.147918 0.0485575 0.764095 -3.31327 0.116124 0.37842 -0.105196
227 1 0.826283 0.101558 0.0228066 1.06232 -3.27391 -0.0675171 0.391523 0.144097
1825 1 0.798908 0.0990839 0.0483179 0.845509 -3.27449 0.207954 0.323572 0.462173
228 1 0.80079 0.124534 0.0232247 0.515708 -3.2431 -0.434467 0.176962 -0.303412
1829 1 0.848458 0.100865 0.0486607 0.418726 -3.30494 0.0675037 0.144615 0.0336054
232 1 0.850388 0.128479 0.0238518 1.0278 -3.30425 -0.16959 -0.545543 0.0679361
311 1 0.876694 0.151122 0.0263551 0.398237 -3.28683 -0.0494767 -0.163609 -0.162438
1830 1 0.8756 0.126048 0.0491581 0.282012 -3.30418 0.000959962 -0.08975 0.229092
309 1 0.849587 0.152059 1.00003 0.428821 -3.32387 0.186701 -0.161798 0.0450359
235 1 0.924782 0.100816 0.0237432 0.222661 -3.29785 -0.162095 0.185544 0.364511
236 1 0.901105 0.125916 0.025132 0.436045 -3.34295 -0.027404 0.0323943 0.038413
315 1 0.924626 0.151312 0.0267854 0.426744 -3.29333 0.341919 -0.133388 -0.259839
237 1 0.947039 0.101829 -0.00134164 1.39641 -3.24365 1.09578 -0.0389169 0.465233
164 1 0.00102002 0.126817 0.0250308 0.435416 -3.27151 -0.583828 -0.314455 0.238043
240 1 0.948975 0.127445 0.024377 0.678791 -3.33983 -0.00304621 -0.529916 0.464779
1838 1 0.975925 0.124538 0.0520361 1.3335 -3.34266 -0.451424 0.264488 -0.623733
248 1 0.0520437 0.174213 0.0232548 1.37687 -3.29979 -0.438931 0.140812 0.559402
244 1 1.00103 0.173745 0.0267631 0.956961 -3.3147 -0.118453 0.587231 -0.513138
323 1 0.0257944 0.199307 0.0248745 0.650958 -3.37193 -0.276641 0.137023 0.120401
1841 1 0.999579 0.151313 0.0507419 0.340627 -3.25821 0.425908 -0.249466 -0.105259
247 1 0.0756218 0.148931 0.0242158 0.455278 -3.34021 -0.0454036 -0.137612 -0.0603705
252 1 0.099676 0.173547 0.0240303 0.539799 -3.29418 0.120644 0.0589657 -0.432729
246 1 0.0753033 0.173897 -0.000830087 0.350389 -3.28197 0.178855 0.279519 0.0612019
327 1 0.0769356 0.198299 0.0261364 1.3771 -3.28884 -0.702657 0.534772 -0.435416
329 1 0.0985985 0.200343 0.000194906 0.688104 -3.33109 0.332719 -0.328755 -0.236734
256 1 0.151565 0.176273 0.0238703 0.186607 -3.33689 -0.256624 0.0456084 0.0964519
250 1 0.126668 0.175443 -0.00223163 0.732643 -3.39176 -0.377167 -0.129445 0.344957
260 1 0.201942 0.17482 0.024505 0.364721 -3.28522 -0.107998 -0.017804 0.201634
337 1 0.200965 0.200958 1.00105 0.620499 -3.28035 0.421531 -0.0838112 0.0191075
1937 1 0.202086 0.200961 0.0504701 0.564963 -3.25068 -0.12448 -0.0332569 -0.0472436
254 1 0.178222 0.174798 1.00045 0.441038 -3.26862 -0.488309 0.188724 -0.210316
263 1 0.275104 0.152218 0.0275905 1.92827 -3.21703 0.110481 -0.758713 -0.668514
1861 1 0.251118 0.149833 0.0508515 0.296646 -3.32256 -0.212078 0.214789 0.0460178
264 1 0.251627 0.174793 0.0245984 0.609913 -3.26362 -0.632433 0.335241 0.346872
258 1 0.226478 0.175213 1.00036 0.437378 -3.32659 0.357489 -0.0271818 -0.0068348
339 1 0.2268 0.199895 0.0255088 0.253185 -3.33473 0.0335641 0.148609 -0.21864
1862 1 0.275291 0.177214 0.0506279 0.96832 -3.28971 0.346688 -0.558936 -0.0423468
267 1 0.32727 0.149291 0.0245029 1.09117 -3.31784 -0.12021 0.567545 -0.0333897
268 1 0.299455 0.175157 0.0243229 0.828502 -3.32371 0.630836 -0.0611927 0.257673
347 1 0.32495 0.201328 0.025724 0.316351 -3.29631 -0.0680513 -0.0598322 -0.133156
266 1 0.325923 0.178284 1.00039 1.42519 -3.26355 -0.286711 -0.80555 0.463516
1866 1 0.325906 0.177417 0.0509566 0.789372 -3.31723 -0.133121 -0.520439 -0.258752
272 1 0.349542 0.176575 0.0264345 0.638956 -3.2969 -0.0677794 -0.120438 -0.39022
1870 1 0.372995 0.17761 0.0505153 1.37266 -3.29988 0.0212019 -0.574839 0.373055
275 1 0.424316 0.151702 0.0263437 0.545439 -3.29191 0.203566 -0.260986 -0.0526591
276 1 0.399538 0.176141 0.0275312 0.440152 -3.28373 0.267383 -0.187969 -0.209974
355 1 0.42576 0.200458 0.0275299 0.559882 -3.32668 -0.208364 -0.295523 -0.0362411
280 1 0.451279 0.173449 0.0276526 1.10097 -3.32098 -0.259189 0.367167 -0.389928
278 1 0.47499 0.173997 0.000351304 0.236368 -3.34003 0.274248 0.359303 0.158258
359 1 0.475199 0.200216 0.0277154 0.794233 -3.30233 0.28062 -0.319131 -0.683564
1881 1 0.500696 0.146509 0.0510783 1.82574 -3.27939 -0.128622 0.841951 -0.190775
1878 1 0.476966 0.174389 0.0499269 0.652366 -3.3592 0.0607959 -0.169604 0.267043
357 1 0.449448 0.198036 1.00248 0.959936 -3.27912 0.625294 0.538545 0.0602588
283 1 0.528473 0.148643 0.0251752 1.10731 -3.2697 -0.19775 0.394009 0.0145575
284 1 0.504815 0.173402 0.0257802 2.60965 -3.34893 -0.691555 0.202024 -0.13456
288 1 0.549267 0.176164 0.0255797 0.881846 -3.34114 0.0103397 -0.183266 0.00794953
363 1 0.524158 0.201419 0.0263507 1.23126 -3.30962 -0.124707 -0.149726 -0.308806
1882 1 0.52556 0.173563 0.0523491 1.1512 -3.26384 -0.38578 0.521175 -0.263179
282 1 0.527251 0.174291 -0.000693847 0.784635 -3.29213 -0.458251 0.0398886 0.23278
1889 1 0.599264 0.14893 0.0500588 0.35077 -3.35285 -0.169118 0.333756 -0.0599759
1886 1 0.573405 0.176504 0.0510789 0.980837 -3.30725 0.239018 -0.257335 0.0623451
292 1 0.599117 0.174268 0.0260581 0.419912 -3.33703 0.414801 -0.161932 -0.117519
369 1 0.598426 0.198004 -0.000844711 1.10281 -3.29719 0.576022 0.627624 0.129644
291 1 0.625326 0.150184 0.0250449 0.250605 -3.34409 0.0276287 0.11813 0.180348
1893 1 0.649227 0.150627 0.0506969 0.2916 -3.27721 0.182311 -0.189403 -0.350347
371 1 0.624066 0.200726 0.0246866 0.422179 -3.33962 -0.097642 -0.113371 0.141931
296 1 0.649399 0.176339 0.0247541 0.422777 -3.32166 -0.114508 -0.376705 0.0408388
290 1 0.623364 0.17282 -0.00102269 1.17612 -3.27939 0.181077 0.57518 0.576451
297 1 0.698285 0.150326 0.999141 0.429724 -3.33777 -0.28772 -0.0685728 0.424587
295 1 0.673969 0.151167 0.0269908 0.948297 -3.31873 -0.0760372 -0.365527 -0.623168
300 1 0.697596 0.176306 0.0245842 0.973148 -3.2841 0.540642 -0.33588 -0.278728
1897 1 0.698932 0.147827 0.0494171 0.881341 -3.2145 0.320562 0.592586 -0.126767
299 1 0.724416 0.149927 0.022639 0.458449 -3.32098 -0.207467 0.0602468 0.273639
303 1 0.773189 0.147524 0.0217147 1.86518 -3.2793 0.868628 0.934534 0.622123
304 1 0.750177 0.174683 0.023292 0.374467 -3.33556 -0.107377 0.181578 0.149252
1902 1 0.773193 0.174559 0.0495037 0.718433 -3.24962 0.330158 -0.560602 -0.510353
379 1 0.724314 0.202296 0.0250036 1.23099 -3.29886 0.0540856 -0.888605 -0.0723264
383 1 0.774649 0.20108 0.0229809 0.732028 -3.26302 -0.112355 -0.42732 0.183732
1898 1 0.724581 0.17351 0.0464445 1.47096 -3.36333 0.121455 0.084767 0.588891
307 1 0.825343 0.15239 0.0247147 0.734779 -3.30037 -0.136241 -0.229795 -0.115743
308 1 0.800055 0.175645 0.0225089 0.615184 -3.31537 -0.414524 -0.251737 0.500943
1905 1 0.799997 0.150319 0.0479984 0.487866 -3.31143 -0.695392 0.57777 0.0638844
387 1 0.825991 0.200524 0.0260457 0.524705 -3.35007 -0.372611 0.0342017 -0.280292
312 1 0.851867 0.174667 0.0259683 0.684578 -3.29814 -0.313108 0.343588 -0.365
1989 1 0.850469 0.200267 0.0500582 0.22354 -3.28696 -0.0564097 0.276892 0.0432994
1910 1 0.874443 0.175945 0.0509703 0.503402 -3.31238 0.243445 -0.38112 -0.113942
310 1 0.874754 0.176292 0.000720659 0.303663 -3.2652 -0.0717017 0.160911 0.219064
316 1 0.900733 0.174694 0.0263518 0.791703 -3.25513 -0.540381 0.568233 -0.229953
314 1 0.923859 0.178075 0.000852886 0.762704 -3.33213 0.397227 -0.377741 -0.186441
319 1 0.97402 0.150735 0.0258666 0.408206 -3.28447 0.260361 -0.15239 0.193884
320 1 0.950803 0.176832 0.0256371 0.355263 -3.26977 -0.728262 -0.388773 0.105132
399 1 0.974536 0.19993 0.025143 0.38095 -3.27793 0.63404 0.333361 0.293818
325 1 0.0486173 0.200642 -0.000663595 0.81361 -3.32474 0.732505 -0.1057 0.250831
328 1 0.0504395 0.225643 0.0259311 0.502726 -3.33377 -0.325648 -0.278642 0.0566553
403 1 0.0260399 0.25085 0.025498 0.227007 -3.27011 -0.0874677 -0.141999 -0.071971
2005 1 0.0500243 0.25084 0.0491143 0.504734 -3.27628 0.11449 -0.403071 0.271038
321 1 0.999272 0.199095 -0.000635121 0.990165 -3.30032 0.0149196 0.173759 0.573618
332 1 0.101714 0.224447 0.024568 0.257354 -3.28863 -0.251985 0.141476 0.125211
407 1 0.0766741 0.249002 0.0243826 0.558103 -3.28185 -0.213555 0.343159 0.33332
326 1 0.0742612 0.224134 1.00219 1.34335 -3.30288 0.147813 -0.0504008 -0.666052
331 1 0.125116 0.199365 0.024296 0.557654 -3.28602 0.0399048 -0.0479894 -0.155882
336 1 0.150269 0.226029 0.0250729 0.748892 -3.26919 0.291533 -0.126948 -0.690294
411 1 0.127831 0.251567 0.0228573 1.52521 -3.32086 -0.377286 -0.261601 0.0490735
330 1 0.125326 0.223361 1.00066 0.93515 -3.32768 0.113734 0.446082 -0.423404
413 1 0.150287 0.250052 -0.0029136 2.20337 -3.2217 -0.317378 -0.203703 0.919335
335 1 0.177905 0.200989 0.0253262 0.466263 -3.29618 -0.373913 0.0248386 -0.191604
340 1 0.202484 0.226086 0.0252755 0.319179 -3.26879 -0.160562 0.0178849 0.129596
415 1 0.175213 0.249715 0.023526 1.2821 -3.33006 -0.0210035 0.359223 0.426199
334 1 0.178323 0.227447 1.00096 1.59406 -3.27878 -0.417742 -0.627079 0.0533315
417 1 0.202964 0.252084 1.00042 1.39087 -3.26017 -0.328715 -0.0670607 0.183964
343 1 0.276683 0.201506 0.0255744 0.650876 -3.26747 -0.662555 -0.238261 0.229963
344 1 0.251497 0.226462 0.0260308 0.364358 -3.36063 -0.22494 -0.271579 -0.012031
419 1 0.225757 0.252159 0.0250355 0.514724 -3.29711 0.247903 -0.265594 0.256426
1938 1 0.224827 0.224926 0.0502825 0.502103 -3.32428 0.47987 0.247765 0.314524
2021 1 0.251985 0.250787 0.0500979 0.685835 -3.27525 -0.554461 -0.169858 -0.0267565
1942 1 0.275309 0.224954 0.0526714 0.942036 -3.25842 0.202045 -0.0329812 -0.660691
338 1 0.225303 0.225669 1.00107 0.374953 -3.33104 0.373528 0.0969937 -0.32452
1941 1 0.250914 0.198865 0.0502525 0.3801 -3.29949 -0.527809 0.526933 0.0428787
348 1 0.299417 0.225295 0.0264533 0.618791 -3.30978 0.616266 0.52217 -0.118336
427 1 0.32573 0.251342 0.0268687 0.702969 -3.36639 -0.340948 -0.296154 -0.290292
1945 1 0.301768 0.202128 0.0511839 0.772322 -3.31158 -0.374715 -0.16817 0.00467315
2025 1 0.298137 0.252188 0.0502628 0.7111 -3.3095 0.0894871 -0.323913 0.231433
351 1 0.376096 0.199855 0.0251763 1.04151 -3.30737 -0.511773 0.384676 0.278569
352 1 0.349261 0.225186 0.0271555 0.692675 -3.29742 0.0890988 -0.083962 -0.517012
350 1 0.375368 0.22635 0.0014527 0.437103 -3.30792 0.0293274 -0.216616 0.0310737
356 1 0.399166 0.224931 0.0274535 0.25986 -3.31694 0.00724945 0.135086 -0.140309
435 1 0.425486 0.250624 0.0261976 0.648937 -3.2826 -0.36472 -0.274086 -0.138184
433 1 0.399708 0.250997 0.00284488 0.989356 -3.33821 0.105796 0.0557013 -0.333596
1954 1 0.422431 0.224012 0.0520027 0.898724 -3.31796 0.460033 0.161054 0.198514
1957 1 0.450715 0.200514 0.051175 0.545064 -3.294 -0.55413 -0.523027 0.416674
360 1 0.450205 0.225337 0.0282058 0.992136 -3.27844 -0.133363 -0.120772 -0.767441
1958 1 0.474194 0.2252 0.0511457 0.195274 -3.24993 0.240167 0.250526 0.261771
358 1 0.472611 0.225383 -0.000387739 1.10035 -3.30473 0.236235 -0.556529 0.50938
364 1 0.498115 0.225411 0.0246575 0.606034 -3.3284 -0.0503061 0.0147427 0.211548
361 1 0.50002 0.199879 0.999693 0.674583 -3.36167 -0.257065 -0.19643 0.421283
1965 1 0.549243 0.200556 0.0491192 0.73386 -3.27755 0.344289 -0.18 0.321082
1962 1 0.526069 0.22434 0.0506546 1.08186 -3.23283 -0.665591 0.47433 -0.365872
368 1 0.55116 0.226453 0.0243644 1.03134 -3.29895 0.123151 -0.250076 0.489325
367 1 0.576972 0.199075 0.0251686 1.02774 -3.29617 -0.48541 0.446378 0.114259
372 1 0.598976 0.226255 0.0247513 0.628606 -3.32025 -0.0169588 -0.139036 0.262738
447 1 0.574849 0.251361 0.0250986 0.476239 -3.31603 -0.418442 -0.36997 0.344822
366 1 0.574957 0.224438 0.00032849 0.327009 -3.29656 -0.153848 0.215872 -0.0949238
1969 1 0.600711 0.198997 0.0500197 0.70407 -3.28374 -0.172739 0.452055 0.0916089
1966 1 0.575393 0.224716 0.0516683 0.739561 -3.33665 0.244453 0.184704 -0.58849
1970 1 0.623011 0.226603 0.0506507 0.811451 -3.32766 0.588573 -0.40189 -0.236002
376 1 0.650561 0.225939 0.0256866 0.348549 -3.26262 -0.408247 -0.0887535 0.0155247
451 1 0.62467 0.250482 0.0258718 0.316933 -3.33672 0.0754423 -0.0548735 -0.162734
2053 1 0.649462 0.251501 0.0494679 0.447167 -3.30397 0.0574053 -0.379317 0.213597
370 1 0.62601 0.224449 1.00173 0.756811 -3.33753 -0.536704 0.279556 -0.440555
375 1 0.673851 0.199929 0.0254516 0.437704 -3.27712 0.125145 0.266408 -0.210275
380 1 0.699191 0.225497 0.0268348 1.01912 -3.29665 0.0651493 0.131444 -0.264576
455 1 0.67457 0.251561 0.0244473 0.719941 -3.27642 0.336548 -0.136178 0.519294
1974 1 0.673959 0.225092 0.0487069 0.544653 -3.26186 0.377274 0.174844 0.616941