ITEM: TIMESTEP
7500
ITEM: NUMBER OF ATOMS
32000
ITEM: BOX BOUNDS pp pp pp
2.9078663855042128e+00 7.8092133614495836e+01
-1.4512340195076376e+00 8.2451234019507751e+01
-1.4402391629249891e+00 8.2440239162924343e+01
ITEM: ATOMS id type xs ys zs c_csym c_peratom fx fy fz
8 1 0.0495595 0.0218153 0.0263563 1.59971 -3.26045 -0.209387 0.407365 -0.505496
4 1 -0.00092702 0.0238385 0.0254026 0.457143 -3.31141 -0.363117 0.134831 -0.216412
3 1 0.0216771 -0.00154512 0.0240464 1.80575 -3.30861 0.888001 -0.195897 0.212358
1605 1 0.0488093 -0.00020198 0.049407 0.663729 -3.36717 -0.183793 -0.564596 0.351389
12 1 0.100663 0.0257507 0.0261562 0.484173 -3.33571 0.185987 -0.189659 -0.13755
87 1 0.0747267 0.0489405 0.0239081 0.574494 -3.31872 -0.403022 0.0845214 0.124776
1606 1 0.0749812 0.0258851 0.0480368 1.39784 -3.30404 0.133966 -0.262627 0.885279
7 1 0.0743603 -0.00172513 0.0250829 0.466537 -3.28685 0.220647 0.0836748 0.0164151
16 1 0.149839 0.0237573 0.0252334 0.394683 -3.31099 -0.0172901 0.182847 0.212349
1610 1 0.125967 0.0242709 0.0528655 1.4162 -3.31464 -0.390351 0.0975354 -0.788111
10 1 0.1243 0.023698 0.00123746 0.536743 -3.36088 0.188973 -0.0894198 -0.318141
11 1 0.125984 0.000841089 0.0257726 0.676802 -3.29725 -0.379139 -0.293878 -0.307397
20 1 0.199209 0.027169 0.0272092 1.22853 -3.30269 -0.0577125 -0.475118 -0.564915
24 1 0.24934 0.0274098 0.0243849 0.711741 -3.32457 -0.192908 -0.123694 0.290374
1618 1 0.225251 0.0256574 0.0494361 0.505873 -3.35796 -0.0918232 0.26669 0.220206
23 1 0.273571 0.000531022 0.0257816 0.198699 -3.31635 -0.213938 -0.277008 0.0550162
103 1 0.275606 0.0510974 0.0250174 0.488277 -3.36496 0.0911187 0.0835625 0.106181
99 1 0.222622 0.0512983 0.0252079 0.475029 -3.29139 0.71342 0.0116626 -0.257796
28 1 0.299083 0.0242437 0.0244138 0.540846 -3.23915 0.608953 0.385978 0.373645
1705 1 0.29898 0.0519608 0.0520384 1.74901 -3.29871 0.0524904 -0.603126 -0.662206
107 1 0.32355 0.0506887 0.0238861 0.379875 -3.39852 -0.151046 -0.188894 0.103738
27 1 0.324995 0.000380082 0.0228917 0.934107 -3.34978 -0.0676397 -0.275572 0.231875
105 1 0.297757 0.0496174 -0.00130161 1.16045 -3.28994 0.426677 0.38512 0.480619
32 1 0.349136 0.0244241 0.0243916 0.302908 -3.32949 0.143533 0.201459 -0.262879
30 1 0.374966 0.0254039 0.000358303 0.46294 -3.3312 -0.0990007 0.133716 -0.270391
31 1 0.374303 -0.00123612 0.0269174 1.17683 -3.30264 -0.189982 0.410726 -0.604918
1630 1 0.37361 0.0259415 0.0491715 0.523291 -3.34026 0.307901 -0.389707 0.237983
1629 1 0.347579 -0.000120816 0.0500263 0.520115 -3.33885 0.289527 -0.0214816 -0.144503
36 1 0.398178 0.0273803 0.0247445 1.03171 -3.286 0.337847 -0.441256 0.131107
35 1 0.423849 0.00125828 0.0261545 0.606811 -3.29507 0.298249 -0.0843918 -0.119619
1633 1 0.398087 6.45101e-05 0.0497693 0.386628 -3.30535 0.212627 0.142505 0.316406
40 1 0.448667 0.026084 0.0252341 0.420159 -3.28135 0.315703 -0.576936 -0.301923
1717 1 0.447395 0.0515006 0.0489734 0.797004 -3.25073 0.230399 -0.00424226 0.553106
44 1 0.498414 0.0270266 0.0247126 0.405028 -3.34455 0.0894833 -0.225246 -0.0866798
39 1 0.474643 0.000514771 0.0234492 0.472328 -3.31011 0.0826682 0.123874 0.241767
1638 1 0.473572 0.0281315 0.0492688 0.890548 -3.31282 0.160563 -0.201084 0.199281
38 1 0.472873 0.0253631 -0.00231964 1.04889 -3.30423 -0.202979 0.0122388 0.634454
48 1 0.548879 0.0272771 0.0256503 1.29333 -3.26112 -0.231724 -0.583652 -0.546908
43 1 0.523505 0.000204645 0.0242997 0.457604 -3.36527 0.0687151 0.354737 0.0211558
1645 1 0.55201 -0.00254993 0.0503039 2.462 -3.26845 -0.518603 0.733668 -0.32391
52 1 0.599569 0.0251387 0.0248803 0.434116 -3.29689 0.137998 -0.28176 -0.41077
47 1 0.574956 4.77619e-05 0.0240274 0.370418 -3.37491 -0.248969 -0.0429606 0.0970476
1646 1 0.572811 0.0238849 0.0481735 1.67612 -3.22425 0.488989 -0.016127 0.22759
1649 1 0.599755 0.00101228 0.0480463 0.409265 -3.28919 -0.220972 -0.2556 -0.126805
49 1 0.598317 -0.00119181 -0.000353005 0.815533 -3.32873 0.371065 0.362329 0.104879
56 1 0.649381 0.0261837 0.0255652 1.06146 -3.25885 0.283499 -0.200995 -0.268082
1653 1 0.651111 -0.00302398 0.0511762 2.9799 -3.23234 -0.359315 0.989752 -0.257983
131 1 0.624745 0.0512897 0.0234932 1.10001 -3.31471 0.136043 -0.31765 0.0457357
51 1 0.627463 0.000770137 0.0228377 1.47409 -3.37256 -0.461854 -0.262249 0.209451
1650 1 0.624486 0.0259655 0.0478137 0.667553 -3.27533 0.458732 -0.328701 0.606314
55 1 0.672709 8.47968e-05 0.0257323 1.30801 -3.31388 0.661537 0.135082 -0.290457
60 1 0.699227 0.0246915 0.0248897 0.421655 -3.33457 0.164574 0.1163 -0.124064
1654 1 0.674707 0.0248856 0.0502413 0.293183 -3.25368 -0.168465 0.24217 0.0825534
64 1 0.749706 0.026023 0.021262 1.94826 -3.32273 -0.107505 0.34055 0.684317
59 1 0.724815 0.0017028 0.025246 0.350382 -3.30974 -0.365987 0.0603495 -0.100768
63 1 0.773678 0.000979241 0.0252172 0.733145 -3.2684 0.0793471 -0.0703308 -0.192052
58 1 0.723684 0.0273842 -0.00138562 0.964024 -3.26019 0.186891 -0.367779 0.647814
1661 1 0.74943 0.00126827 0.0486184 0.315754 -3.25494 -0.164658 0.108024 0.30656
68 1 0.797625 0.0254775 0.0231349 0.608475 -3.30089 -0.00595334 -0.0474161 0.287064
147 1 0.823885 0.0480013 0.0255205 0.873261 -3.30207 0.0719598 0.503293 -0.428222
67 1 0.824998 0.000290417 0.0245859 0.599571 -3.38651 0.0969824 -0.0622943 -0.0964047
1665 1 0.798963 0.00127368 0.0481613 0.588472 -3.28187 -0.163882 -0.36764 0.263942
1666 1 0.821346 0.0249408 0.0494142 1.11776 -3.21977 1.07363 0.0344117 -0.19719
1745 1 0.79785 0.0501619 0.0485857 0.653285 -3.27821 0.281065 -0.0273175 0.242439
66 1 0.823364 0.0254319 0.000702191 0.931368 -3.35948 0.529132 -0.483104 -0.352184
72 1 0.850505 0.0256652 0.0253098 0.611053 -3.29819 -0.392266 -0.687376 -0.157452
151 1 0.87399 0.0491221 0.024038 0.324801 -3.28548 0.35811 0.412841 0.207227
71 1 0.874245 5.16877e-05 0.024159 0.250807 -3.35435 -0.193725 -0.0265037 0.397751
69 1 0.85148 -0.000783288 -0.00115934 0.923631 -3.32817 -0.551462 0.221941 0.249046
76 1 0.899619 0.025775 0.025288 0.649734 -3.26247 -0.0953276 0.0544223 -0.249646
75 1 0.9224 0.0015139 0.0238424 1.69035 -3.26775 0.549383 -0.762369 0.382967
80 1 0.951696 0.0220715 0.0242884 1.1355 -3.3001 -0.0190704 0.318516 -0.12778
79 1 0.975413 -0.00186233 0.0235945 0.527524 -3.30597 0.625068 0.0770902 0.485709
157 1 0.950096 0.048985 -0.00163548 0.533046 -3.27782 -0.392898 -0.233135 -0.0669254
78 1 0.97536 0.0226517 -0.00201923 0.686209 -3.2522 0.198443 0.58889 0.693782
77 1 0.951813 -0.00118614 -0.000746149 0.768476 -3.31088 -0.593694 -0.145262 -0.0553505
83 1 0.025696 0.0481287 0.0251753 0.43922 -3.33474 -0.183412 0.324352 -0.229849
88 1 0.0506857 0.0741702 0.0250122 0.655996 -3.35414 -0.167874 -0.388601 -0.388798
84 1 -0.00119912 0.0727386 0.0239191 0.445237 -3.37098 0.119518 0.205267 0.0311422
1765 1 0.0482564 0.0966355 0.0484763 1.58318 -3.26397 0.287522 0.721374 0.566462
165 1 0.0476807 0.0988623 0.000544818 1.06165 -3.2967 0.405013 -0.479505 -0.378831
85 1 0.0487133 0.047546 -0.00166259 1.21586 -3.26794 0.401808 0.44651 0.581239
82 1 0.0242232 0.0728268 -0.00113552 0.303144 -3.3401 0.423504 0.112862 0.398497
92 1 0.0978177 0.0734712 0.0245056 1.01051 -3.37229 0.310669 0.423313 0.257134
1686 1 0.0733157 0.0748672 0.0516715 1.14949 -3.22928 0.0221796 -0.962697 -0.231279
86 1 0.0748059 0.0755735 -0.00121235 1.0473 -3.31496 -0.11949 -0.559015 0.277425
91 1 0.125785 0.0513082 0.0241016 1.33615 -3.25361 -0.469698 -0.698766 0.444373
96 1 0.148944 0.0748152 0.0246528 0.355153 -3.24727 0.45266 0.225638 -0.0420715
1690 1 0.125242 0.0741373 0.049451 0.914325 -3.26976 -0.330441 0.420027 -0.018382
95 1 0.171529 0.0493551 0.025758 1.00958 -3.27837 0.633161 0.298102 -0.0533663
100 1 0.198736 0.0752565 0.0246216 0.282848 -3.33207 -0.190301 0.125225 -0.115463
175 1 0.174177 0.101018 0.0267865 0.499884 -3.28112 0.19668 -0.0745609 -0.476726
1777 1 0.199881 0.10057 0.0504919 0.209017 -3.30982 -0.0897618 0.248647 -0.138317
104 1 0.249556 0.0760183 0.0255805 0.209361 -3.34565 -0.115299 0.193985 -0.330187
1701 1 0.248732 0.0531788 0.0506127 1.25366 -3.24225 0.173551 -1.18915 -0.531827
179 1 0.223105 0.100382 0.0253728 0.5275 -3.33193 0.324442 -0.108604 -0.24341
183 1 0.276546 0.101569 0.0253641 0.924428 -3.32326 -0.498598 -0.47322 0.188536
1698 1 0.224306 0.0756885 0.0496412 0.314364 -3.26425 -0.252125 0.381234 -0.207193
1702 1 0.274216 0.0747345 0.0490035 0.894353 -3.29689 0.295315 0.815577 0.244536
108 1 0.300952 0.0772485 0.0244522 1.1922 -3.3288 -0.221417 -0.574027 0.134745
187 1 0.325662 0.100507 0.0236779 0.557359 -3.30232 -0.21414 -0.104098 0.112803
106 1 0.324283 0.0745296 -0.00100081 0.422968 -3.33641 0.172207 0.204812 0.127321
111 1 0.374747 0.0514524 0.0247115 0.245594 -3.29082 0.0501195 -0.0135323 -0.232814
112 1 0.34936 0.074787 0.0231219 0.37331 -3.33964 -0.0941091 0.168671 0.197983
191 1 0.37432 0.101261 0.0247159 0.243927 -3.33115 0.17863 -0.0446651 -0.122597
115 1 0.425145 0.0498256 0.0248141 0.655388 -3.22587 -0.47023 0.345146 -0.306764
116 1 0.400963 0.0768275 0.0245724 0.244725 -3.34217 -0.186713 -0.0726575 -0.108362
119 1 0.47141 0.0508076 0.0249334 0.918402 -3.25364 0.829805 0.144049 -0.00785855
120 1 0.447115 0.0762597 0.0241186 0.642549 -3.29346 0.433401 -0.0141577 0.0570648
197 1 0.44955 0.101242 -0.00166244 0.489197 -3.30877 -0.092312 0.0040003 0.351024
124 1 0.499471 0.0743118 0.024477 0.832637 -3.28371 -0.387088 0.779791 -0.0466624
1718 1 0.474146 0.0740528 0.0499191 0.867043 -3.34979 -0.0018495 0.539831 -0.0814867
123 1 0.523138 0.0518807 0.02619 0.978589 -3.24995 0.85697 -0.412474 -0.438059
128 1 0.549372 0.0750896 0.0254726 0.286354 -3.34835 -0.236579 0.0725091 -0.0578356
1725 1 0.551267 0.049133 0.0495459 1.15473 -3.29379 -0.50435 0.546774 0.432258
1722 1 0.523541 0.0775364 0.0498449 0.915809 -3.28573 0.606573 -0.279594 0.176657
1801 1 0.500994 0.101832 0.0508688 0.43659 -3.3139 -0.44685 -0.0293349 -0.341028
122 1 0.524595 0.0759266 -0.000357977 0.418943 -3.38332 0.12332 0.0170157 0.197623
127 1 0.575282 0.0507897 0.02548 0.576696 -3.27777 0.0557786 0.102058 -0.191148
132 1 0.601365 0.0764406 0.0261498 1.1343 -3.22793 -0.589857 -0.184553 -0.34835
126 1 0.576174 0.074443 0.00195448 0.748284 -3.36348 0.113593 0.07361 -0.374475
207 1 0.573308 0.099758 0.0243896 1.00182 -3.24827 0.634953 -0.0488157 0.44801
1729 1 0.599787 0.0492764 0.0481484 0.778178 -3.2771 -0.330786 0.407661 0.567674
136 1 0.651541 0.0756298 0.0255556 0.399736 -3.28621 -0.373707 -0.2053 -0.141645
1730 1 0.624837 0.0732797 0.0482342 1.58393 -3.28366 0.407841 0.483389 0.788806
1733 1 0.65109 0.049875 0.0496658 0.301907 -3.3126 -0.43608 -0.0866739 0.390937
135 1 0.674867 0.0491437 0.0259199 0.521938 -3.31887 0.518964 0.375717 -0.346565
140 1 0.70134 0.0755376 0.0255619 0.318624 -3.31332 -0.423585 0.121807 0.0767169
134 1 0.676123 0.0758119 0.00070766 0.238428 -3.28954 -0.258372 -0.100747 0.300274
137 1 0.701366 0.0529265 0.000547838 1.16986 -3.26217 -0.510304 -0.731444 0.0638551
143 1 0.773983 0.0522982 0.0237692 0.818732 -3.29911 -0.112722 -0.654576 -0.396532
139 1 0.725263 0.0521649 0.0245921 0.50664 -3.34812 0.503211 -0.57334 0.292906
1741 1 0.752742 0.0512116 0.0509058 1.71934 -3.18208 -1.17643 0.0179546 -0.33918
144 1 0.750969 0.0767006 0.0238372 0.391466 -3.29183 -0.453008 -0.0335536 -0.0429705
142 1 0.775258 0.0759989 -0.00248575 0.60292 -3.35269 0.00291976 -0.0534599 0.468387
138 1 0.725737 0.0761996 -0.00147663 0.453393 -3.2843 0.33078 0.321925 0.383933
219 1 0.724526 0.100734 0.0249453 0.316783 -3.32579 0.300118 -0.13901 0.304632
223 1 0.775918 0.0997496 0.0259952 0.507817 -3.31399 0.239198 0.154489 -0.27019
1821 1 0.751377 0.10048 0.0509872 0.622222 -3.37988 -0.33576 -0.157333 0.0717127
148 1 0.799711 0.0739244 0.0237228 0.597509 -3.3077 0.382581 0.523394 -0.174233
152 1 0.849695 0.0739133 0.0224596 1.07147 -3.25302 -0.2144 -0.0690608 0.899245
1750 1 0.873772 0.0736735 0.048236 0.70044 -3.34252 0.0992974 0.148316 -0.110033
231 1 0.874277 0.0995069 0.0239038 0.678181 -3.34925 0.771723 -0.0952836 0.581764
1749 1 0.848187 0.0477166 0.0497051 1.02638 -3.30634 0.059918 0.455921 -0.0326284
155 1 0.928137 0.0470322 0.0237282 2.15262 -3.28228 -0.760318 0.149745 0.0205048
156 1 0.901758 0.0735993 0.0249976 0.862409 -3.36163 -0.197227 0.143914 0.0419474
1754 1 0.926261 0.0739936 0.0500062 0.469883 -3.29802 -0.485217 -0.122859 0.161387
154 1 0.92352 0.0756004 -0.00101193 1.15429 -3.26193 1.00013 -0.29383 0.240561
159 1 0.97373 0.0490538 0.0227745 0.797895 -3.31717 0.177466 -0.225703 0.348576
81 1 1.0003 0.0478331 2.02287e-05 0.40328 -3.33143 -0.0331023 0.149221 -0.00319641
161 1 1.00051 0.0985817 -0.000394111 0.37819 -3.29798 -0.303843 -0.145106 0.213269
160 1 0.947639 0.0734098 0.0240467 1.19181 -3.30004 0.403279 0.604173 -0.0540857
158 1 0.972581 0.0735397 -0.000732409 0.747852 -3.31304 0.503666 0.345376 0.0290303
239 1 0.973906 0.0994277 0.0226795 1.22303 -3.35279 0.0707008 -0.336801 0.569115
1758 1 0.975637 0.0753102 0.0497975 0.686215 -3.34073 0.110926 -0.315314 -0.147983
1761 1 0.00147081 0.0996544 0.0507562 0.708726 -3.27259 -0.389656 -0.238953 -0.0334229
163 1 0.0239102 0.097709 0.0249803 0.294037 -3.26734 -0.173763 -0.139885 -0.214412
168 1 0.0491485 0.122391 0.0239594 0.558795 -3.29428 0.0643615 0.507242 0.241111
1762 1 0.0258141 0.123238 0.0487254 0.438015 -3.28056 0.167647 0.163513 0.402454
243 1 0.0249301 0.148743 0.0249066 0.252438 -3.32262 -0.00145926 -0.32412 -0.028521
245 1 0.0517788 0.147634 0.000342834 1.02532 -3.28095 -0.528464 0.025274 -0.211999
167 1 0.0740775 0.0998639 0.0239356 0.899981 -3.23724 -0.138593 -0.527695 0.419239
172 1 0.0967012 0.123962 0.026192 0.82942 -3.27517 0.542063 0.133199 0.240724
1766 1 0.0730234 0.124129 0.0511698 0.663388 -3.30341 0.379362 -0.0852575 -0.467546
1769 1 0.0958402 0.0969952 0.0506916 2.06382 -3.26161 1.02433 0.705014 -0.318136
249 1 0.097868 0.149165 0.000762473 0.46419 -3.33591 0.321087 0.172583 -0.2261
171 1 0.126577 0.0994154 0.0282954 3.28323 -3.28441 -1.11972 -0.0532867 -0.732385
176 1 0.148651 0.124675 0.0256387 0.556892 -3.31527 -0.0581485 0.259986 -0.192114
251 1 0.123436 0.148241 0.0246561 0.459212 -3.34205 0.203256 0.213218 -0.340877
1773 1 0.151332 0.102074 0.0503235 1.90447 -3.22935 -0.31417 -0.133673 0.620132
170 1 0.121493 0.123196 0.000499568 1.276 -3.33783 0.634425 0.330659 0.224128
253 1 0.151592 0.149577 -0.00165574 1.4484 -3.34702 -0.456142 0.158293 0.451173
180 1 0.201562 0.126296 0.0255874 0.964368 -3.29437 -0.44014 -0.361108 -0.0212893
1774 1 0.175651 0.127173 0.0498718 1.01278 -3.32385 -0.0697952 -0.417098 0.0581479
257 1 0.199062 0.150587 0.000758879 0.486244 -3.32663 -0.494465 -0.0445905 -0.408174
255 1 0.174937 0.149836 0.0251479 0.456214 -3.30165 -0.310453 -0.0930469 -0.177608
174 1 0.173734 0.124532 0.00212333 0.919071 -3.30075 0.021937 0.116055 -0.317704
184 1 0.249157 0.124063 0.0242958 0.809753 -3.32858 -0.159647 0.408573 -0.133937
259 1 0.223562 0.15066 0.0243995 0.556786 -3.33732 0.783777 0.168924 0.130003
1778 1 0.224413 0.126879 0.0514944 1.08662 -3.2506 -0.242252 -0.472928 -0.255215
261 1 0.251742 0.150192 -0.000612271 1.51158 -3.2949 -0.638351 0.210286 0.41749
182 1 0.275138 0.125644 -0.000263588 0.314208 -3.24961 -0.290014 -0.30773 -0.103821
178 1 0.224133 0.124824 -0.000988705 0.683561 -3.3522 0.113711 -0.0762878 0.199428
188 1 0.299298 0.125364 0.0229369 0.735517 -3.26403 0.308741 0.128019 0.746957
1865 1 0.299116 0.150291 0.0486129 0.365893 -3.34831 0.228723 -0.0890836 0.2655
186 1 0.323472 0.123785 -0.000203688 0.56616 -3.35182 0.369053 0.344379 -0.297444
192 1 0.349772 0.125131 0.0251268 0.313722 -3.28879 -0.135166 0.294989 -0.641956
271 1 0.375458 0.150855 0.0239768 0.277299 -3.33795 -0.298462 -0.0519427 0.106547
195 1 0.426619 0.102457 0.024114 0.660585 -3.27408 -0.342628 -0.158508 -0.130346
196 1 0.400581 0.127366 0.0239411 0.229313 -3.31781 -0.214643 -0.200275 -0.0821292
194 1 0.426472 0.127102 0.000337862 0.700238 -3.31319 -0.241536 -0.173522 -0.144654
199 1 0.474117 0.0997909 0.0249543 0.365798 -3.37677 0.318781 -0.148898 0.219578
200 1 0.452432 0.12566 0.0243685 0.564913 -3.27935 -0.397127 0.260558 0.257158
279 1 0.47624 0.149613 0.0245512 0.261908 -3.32242 -0.50265 0.377093 0.126815
204 1 0.500836 0.126432 0.0249698 0.289313 -3.25712 -0.297849 -0.230627 0.582319
1798 1 0.475779 0.125664 0.0507006 0.26803 -3.3513 -0.155855 -0.0299014 -0.200869
1805 1 0.549592 0.100815 0.0502034 0.20444 -3.3357 0.121527 -0.151104 0.216771
203 1 0.525041 0.102637 0.0253264 0.842318 -3.29932 -0.0835495 -0.913119 0.011226
1802 1 0.526898 0.12621 0.0498901 0.340965 -3.28876 -0.16301 0.0131366 0.0489425
208 1 0.550936 0.12421 0.0237537 0.738479 -3.22504 0.239325 0.428205 0.407697
201 1 0.499729 0.100464 0.00103706 0.176685 -3.32606 0.0848029 -0.37906 -0.0392475
212 1 0.600589 0.125959 0.0252767 0.509113 -3.30136 -0.00975581 -0.270741 -0.187189
287 1 0.576864 0.148691 0.0251221 1.12699 -3.34483 -0.460683 0.609616 0.00249405
1809 1 0.599725 0.101143 0.0474381 1.80087 -3.33716 -0.0690807 -0.119551 0.722399
211 1 0.627433 0.103286 0.0269086 2.36602 -3.18625 -0.504006 -0.54811 -0.752973
1813 1 0.648532 0.100971 0.0500342 0.908725 -3.26851 0.555677 -0.3722 0.731224
1810 1 0.624943 0.126321 0.0517514 0.636118 -3.27581 0.208077 -0.148272 -0.21593
216 1 0.650794 0.126316 0.0247531 0.580591 -3.22506 -0.429816 0.0312764 0.0141669
210 1 0.6255 0.126472 -0.000630408 0.666023 -3.39126 0.145069 -0.173768 0.129705
215 1 0.673759 0.100195 0.0263787 0.588346 -3.2877 0.346702 -0.0281565 -0.315841
220 1 0.69964 0.125038 0.0253715 0.160048 -3.28955 0.214842 0.0708157 -0.0258185
224 1 0.750026 0.123753 0.0260383 0.682114 -3.30817 0.228346 0.283975 -0.237898
222 1 0.775384 0.121947 0.000839403 1.64176 -3.2666 0.0119183 0.998654 0.170309
1818 1 0.725846 0.126884 0.0500637 1.22862 -3.28865 -0.143187 -0.510394 -0.025715
1822 1 0.775582 0.126191 0.0513291 0.510227 -3.27841 -0.559325 -0.482138 -0.186238
1901 1 0.750566 0.15339 0.0509618 2.17416 -3.31379 -0.415705 -0.610572 -0.00968372
227 1 0.827604 0.101004 0.0260204 1.22775 -3.30747 -0.478432 -0.839926 -0.103807
1825 1 0.801019 0.100849 0.0514462 0.478173 -3.32823 -0.300333 -0.138018 -0.329842
228 1 0.801989 0.122992 0.0262426 0.844502 -3.29973 -0.371098 0.424569 -0.208605
1829 1 0.85128 0.0998348 0.0504004 0.599532 -3.33773 0.0963525 -0.0171393 0.0804031
232 1 0.851152 0.124419 0.0248709 0.338156 -3.26345 0.0866489 0.355537 0.493119
311 1 0.873046 0.150954 0.0262452 0.666882 -3.23054 0.123383 -0.0768517 -0.277712
1830 1 0.875666 0.12646 0.0517385 0.910556 -3.32194 -0.343409 -0.454235 -0.226029
309 1 0.85104 0.148223 0.00110815 0.860052 -3.29067 -0.304213 0.565152 -0.553106
235 1 0.924419 0.100779 0.0268694 0.815703 -3.32065 -0.0250544 -0.472781 -0.182541
236 1 0.900164 0.125921 0.0268266 0.633716 -3.35765 -0.209525 -0.310974 -0.0986102
315 1 0.926462 0.148847 0.0254276 0.680132 -3.29985 -0.442698 0.146878 -0.130945
237 1 0.95001 0.100744 -0.00174291 0.87445 -3.30217 -0.415223 -0.526689 0.336158
164 1 0.999965 0.122169 0.0256726 0.562977 -3.35015 -0.197032 0.468812 -0.232705
240 1 0.949183 0.123572 0.0256331 0.559228 -3.32419 0.533417 0.17787 0.0656887
1838 1 0.975397 0.123431 0.0517407 0.573361 -3.27394 0.120692 0.0742375 -0.827902
248 1 0.0480493 0.17538 0.023586 1.35392 -3.26262 0.483271 -0.1143 0.753413
244 1 0.00303958 0.175109 0.025932 1.42984 -3.34058 -0.549445 0.133892 -0.157704
323 1 0.0277693 0.201937 0.0259036 2.53789 -3.27267 -0.664824 -0.345331 -0.280183
1841 1 0.00102129 0.148706 0.0503285 0.345448 -3.33824 -0.0602864 0.0658037 0.0255676
247 1 0.0732044 0.151104 0.0252427 1.05597 -3.29404 0.414216 -0.315875 0.120158
252 1 0.0998585 0.174568 0.0246242 0.270246 -3.37177 -0.00541051 0.259619 -0.0979905
246 1 0.0733216 0.17437 -0.000734419 0.364894 -3.25913 0.202028 0.0317522 0.574587
327 1 0.0731984 0.199684 0.0247114 0.53585 -3.32946 0.317824 -0.521434 0.259139
329 1 0.0992391 0.199252 -0.000732697 0.52791 -3.28102 0.545826 -0.302894 0.385812
256 1 0.149858 0.175279 0.0236711 0.376579 -3.30372 -0.14836 -0.161019 -0.325647
250 1 0.125644 0.174651 -0.000709461 0.40524 -3.3234 0.0162703 -0.0592143 0.424668
260 1 0.197723 0.174821 0.0248658 0.478674 -3.25461 0.493609 -0.054816 -0.0227167
337 1 0.200346 0.198444 -0.00163345 0.99649 -3.25339 0.0745573 0.731907 0.482591
1937 1 0.198003 0.198577 0.0495808 0.542982 -3.29561 0.157857 0.261798 0.337434
254 1 0.174476 0.176444 -0.000808883 0.445969 -3.29862 -0.198831 -0.4657 -0.232857
263 1 0.273204 0.150354 0.0260413 0.839073 -3.26209 0.221058 -0.0612479 -0.528613
1861 1 0.25039 0.147724 0.0495644 1.67304 -3.24408 -0.305694 0.83571 0.251104
264 1 0.249657 0.17566 0.0263255 0.489327 -3.35231 -0.143959 -0.184796 -0.417165
258 1 0.224648 0.175369 0.000621757 0.461025 -3.33776 0.0558529 -0.1314 0.336812
339 1 0.224017 0.199247 0.0264686 0.726816 -3.31315 -0.154457 -0.111831 -0.542103
1862 1 0.273233 0.174365 0.0506274 0.725963 -3.29663 0.684585 -0.0994469 -0.15343
267 1 0.3246 0.149889 0.0237816 0.208759 -3.36129 0.124853 -0.148374 0.0498793
268 1 0.299377 0.17359 0.0244397 0.386243 -3.33631 -0.24256 0.296274 0.256356
347 1 0.324711 0.19753 0.0251102 0.893041 -3.31145 -0.100475 0.594076 -0.239022
266 1 0.323457 0.174555 -0.00016262 0.439616 -3.26383 0.0968868 -0.118649 0.132819
1866 1 0.325964 0.175173 0.049257 0.354889 -3.33117 -0.265654 -0.109595 0.00261366
272 1 0.350468 0.174273 0.0235042 0.516758 -3.28581 -0.231774 -0.00181866 0.354248
1870 1 0.373298 0.175201 0.0492253 0.736455 -3.32946 0.542527 -0.233724 -0.292193
275 1 0.427132 0.151389 0.022889 0.584325 -3.32877 -0.0815542 -0.205641 0.272911
276 1 0.401235 0.174556 0.0238012 0.481049 -3.35098 -0.190786 0.393821 0.129703
355 1 0.428745 0.199543 0.0249687 1.29932 -3.28804 -0.876701 0.478736 0.0716326
280 1 0.451292 0.176624 0.023599 0.570479 -3.2729 0.446642 -0.750695 0.0914025
278 1 0.476398 0.175747 0.00029462 0.273372 -3.29005 0.0391542 -0.196943 0.0963842
359 1 0.475251 0.20222 0.0250765 1.08681 -3.34877 0.344742 -0.551022 0.0362329
1881 1 0.501684 0.150437 0.0501587 0.149503 -3.32509 -0.0949393 0.13238 -0.195528
1878 1 0.476469 0.174867 0.0486976 0.693729 -3.32268 0.00120416 0.00288856 0.411802
357 1 0.451479 0.200405 -0.000576338 0.441913 -3.28447 -0.157277 -0.0776827 -0.0965066
283 1 0.528606 0.149618 0.0248083 1.2453 -3.28756 -0.793584 0.202701 0.268965
284 1 0.500419 0.173762 0.0254275 0.63996 -3.33659 0.490399 0.383937 -0.284526
288 1 0.550378 0.174187 0.0277372 1.68609 -3.27605 0.622228 0.191441 -0.545526
363 1 0.526766 0.200474 0.0253522 0.543919 -3.34032 -0.216997 0.0222936 0.390873
1882 1 0.526034 0.175851 0.0495187 0.40879 -3.27317 -0.525689 0.0309878 0.382966
282 1 0.526346 0.174161 -0.00100577 0.839322 -3.31846 -0.0112 0.171263 0.520029
1889 1 0.601011 0.150117 0.0513822 0.396635 -3.24971 -0.121336 -0.0564696 -0.0440593
1886 1 0.578281 0.173818 0.0514464 2.30912 -3.23209 -0.711398 0.179899 -0.67486
292 1 0.600211 0.176137 0.0236513 0.745687 -3.3227 -0.365188 -0.0611466 0.318479
369 1 0.599444 0.200982 -0.00110734 0.260804 -3.33425 0.0895327 -0.321369 -0.18081
291 1 0.624225 0.15067 0.0263938 0.535747 -3.30994 0.250753 -0.0622519 -0.116139
1893 1 0.651394 0.148269 0.0515862 1.50919 -3.3281 -0.23058 0.757122 -0.232361
371 1 0.624461 0.200414 0.0240966 0.199844 -3.32863 -0.0569258 0.278965 0.245037
296 1 0.649284 0.174259 0.0254554 0.744809 -3.31835 0.423486 0.392748 0.0942177
290 1 0.62506 0.176507 0.000356153 0.340669 -3.26192 0.139946 0.257305 -0.378801
297 1 0.700324 0.151971 0.0001112 0.808144 -3.307 0.203614 -0.477375 -0.156408
295 1 0.674602 0.14866 0.0233813 1.25271 -3.267 0.458306 0.714193 0.632963
300 1 0.699286 0.175265 0.0257182 0.461518 -3.32038 0.316123 -0.326163 -0.00167482
1897 1 0.699546 0.149199 0.0515664 0.69751 -3.3266 -0.187128 0.454493 -0.63191
299 1 0.725646 0.148546 0.0248812 1.12684 -3.35554 0.0187319 0.612005 0.102748
303 1 0.774908 0.149163 0.0257332 0.400474 -3.31401 -0.117144 -0.355794 -0.275963
304 1 0.752848 0.17526 0.0264095 1.20418 -3.33637 -0.428786 -0.0414383 -0.274785
1902 1 0.77662 0.175803 0.0530247 2.05739 -3.26327 -0.114061 -0.106683 -0.398371
379 1 0.725087 0.199443 0.0251227 0.438388 -3.26512 -0.265252 0.0547849 0.259908
383 1 0.776954 0.200518 0.0242928 0.812527 -3.31702 -0.167323 -0.184976 -0.262684
1898 1 0.724157 0.177065 0.0501883 1.11396 -3.3037 -0.0658492 -0.788109 0.118168
307 1 0.825203 0.149897 0.0244562 0.430117 -3.33852 -0.032666 -0.138434 0.0889659
308 1 0.799232 0.173067 0.0267353 1.22062 -3.3268 0.106463 0.346171 -0.363468
1905 1 0.800168 0.147447 0.0493625 2.18322 -3.26716 0.445742 0.92256 0.168152
387 1 0.823742 0.199388 0.0248554 0.762055 -3.27375 0.101467 0.0638133 -0.153146
312 1 0.848286 0.17644 0.024724 0.792315 -3.30505 0.146515 -0.553458 -0.100076
1989 1 0.847892 0.199902 0.0485443 0.940892 -3.26517 0.345806 0.114152 0.207459
1910 1 0.872214 0.176494 0.0500317 0.884845 -3.30535 0.683951 -0.115844 -0.0760422
310 1 0.874702 0.173383 -0.00167927 0.880176 -3.34899 -0.141406 0.309785 0.214852
316 1 0.899267 0.174782 0.024058 0.485703 -3.36631 0.394929 0.130322 0.197706
314 1 0.925344 0.173758 -0.000357457 0.629508 -3.35531 -0.00656863 0.144038 0.1452
319 1 0.975715 0.148563 0.0264122 0.436044 -3.36911 0.00961304 0.0120659 -0.421034
320 1 0.948486 0.173855 0.0257221 0.811091 -3.30142 0.580093 0.296078 -0.558924
399 1 0.974613 0.200219 0.0244521 0.749384 -3.32342 0.100625 -0.6004 0.0890077
325 1 0.0494543 0.199655 -0.000805203 0.685998 -3.32459 -0.248152 -0.165155 0.0227315
328 1 0.0526299 0.225791 0.0233111 2.38406 -3.2275 -0.670323 -0.0292888 0.406468
403 1 0.0249825 0.249078 0.0249371 0.546293 -3.35019 -0.32879 -0.0052486 -0.172826
2005 1 0.0480226 0.250214 0.0496946 0.699643 -3.30082 0.722656 -0.0849558 0.273028
321 1 0.00237055 0.200611 -0.000578931 1.74945 -3.30417 -0.533189 -0.836036 0.337386
332 1 0.097885 0.223923 0.0253755 0.666211 -3.29369 0.210135 0.349448 0.336114
407 1 0.0739647 0.250468 0.0252969 0.614696 -3.31226 0.0125671 0.367642 -0.230727
326 1 0.0767561 0.222494 0.000461671 1.84674 -3.23436 -0.362356 0.802069 -0.667106
331 1 0.124569 0.201203 0.0263213 0.973582 -3.2933 -0.204935 -0.488713 -0.681136
336 1 0.150507 0.223713 0.026354 0.826263 -3.32425 0.037724 0.17332 -0.481312
411 1 0.124445 0.251855 0.0248902 1.30677 -3.23753 -0.472441 -1.33527 -0.00693692
330 1 0.122321 0.225254 0.00142158 1.23805 -3.3731 0.599693 -0.00190909 -0.0656836
413 1 0.151885 0.247807 0.00058918 1.44594 -3.36108 -0.499168 0.0542221 0.0229496
335 1 0.176404 0.19969 0.0233249 1.01597 -3.28214 -0.509771 0.267169 0.326022
340 1 0.200222 0.22438 0.0254618 0.290346 -3.3564 0.0992551 0.0293922 0.0776216
415 1 0.174338 0.248502 0.0262684 0.294679 -3.30794 0.259861 0.0826524 -0.073877
334 1 0.176303 0.223575 -0.00121287 0.81565 -3.32556 -0.0164376 0.282514 0.279328
417 1 0.200273 0.249417 0.00277828 1.41713 -3.27944 -0.387889 0.0102943 -0.959364
343 1 0.27543 0.200646 0.025752 0.502209 -3.29548 -0.0593308 -0.54392 -0.201201
344 1 0.248995 0.222153 0.024892 1.98472 -3.25271 0.13638 0.88595 -0.0133672
419 1 0.223455 0.25103 0.0253916 0.441493 -3.29576 0.533434 -0.320037 0.367357
1938 1 0.227188 0.223546 0.0495914 1.31384 -3.28395 -0.81155 0.295909 0.0889955
2021 1 0.248693 0.250293 0.0492019 0.380725 -3.31162 -0.0175272 -0.124231 0.0319306
1942 1 0.275014 0.225543 0.0505962 0.437925 -3.35309 -0.106145 -0.0349301 -0.197171
338 1 0.224997 0.225971 -0.000240008 0.553042 -3.31443 -0.385374 -0.386977 0.0395699
1941 1 0.250773 0.199086 0.050187 0.305944 -3.27741 -0.240326 -0.0191837 0.19027
348 1 0.299064 0.225178 0.0246936 0.28131 -3.27288 0.37393 0.0976849 0.157125
427 1 0.323997 0.250245 0.0242533 0.697238 -3.34524 0.380287 -0.483549 0.348199
1945 1 0.299671 0.199408 0.0494095 0.228595 -3.27778 -0.081725 -0.375324 0.00558812
2025 1 0.298827 0.25003 0.0490511 0.557098 -3.35294 0.211903 -0.126346 0.225541
351 1 0.375247 0.201305 0.0247636 0.569014 -3.2578 -0.0465175 -0.881627 -0.149024
352 1 0.351958 0.225026 0.024507 0.875945 -3.30826 -0.636884 0.193602 -0.00831449
350 1 0.37477 0.224616 -0.00138164 0.866492 -3.29184 0.549871 0.0185284 0.324735
356 1 0.398295 0.224658 0.0264149 1.72257 -3.27026 1.04365 0.251059 -0.478958
435 1 0.425608 0.249024 0.0240367 0.751796 -3.24366 -0.513638 0.287577 0.632975
433 1 0.401727 0.251508 0.000447929 0.75663 -3.30948 -0.578587 -0.603654 -0.240767
1954 1 0.426559 0.223632 0.0499323 0.639404 -3.35272 -0.261287 0.26376 -0.241189
1957 1 0.452449 0.198603 0.0513917 1.30683 -3.30144 -0.227317 0.275619 -0.320086
360 1 0.450326 0.225826 0.0258811 0.50247 -3.21878 0.2131 -0.237388 0.0967671
1958 1 0.476625 0.224457 0.0500332 0.821631 -3.25486 -0.721665 0.302317 -0.182327
358 1 0.474583 0.225817 0.00220066 1.21553 -3.27962 0.474405 -0.170562 -0.412957
364 1 0.500988 0.226713 0.0265806 0.667111 -3.29378 0.0163686 -0.342771 -0.47554
361 1 0.502647 0.198587 0.00123655 1.93287 -3.28945 -0.200533 0.417964 0.246811
1965 1 0.552538 0.200648 0.0512411 1.13161 -3.32297 -0.393117 0.0189626 -0.339139
1962 1 0.526427 0.226194 0.049333 0.368211 -3.33531 0.0262284 -0.226231 0.215515
368 1 0.550684 0.226734 0.0241407 0.426546 -3.29905 -0.423147 -0.154838 -0.293189
367 1 0.572789 0.200234 0.0235607 1.01196 -3.30906 0.117742 -0.158715 -0.0196975
372 1 0.597757 0.225846 0.0223353 0.836742 -3.31088 0.396394 -0.316844 0.445248
447 1 0.573582 0.251267 0.0228903 0.476252 -3.24062 0.160811 -0.0949162 0.316381
366 1 0.573496 0.223079 -0.0020627 2.03987 -3.30958 0.0260137 0.713554 -0.112231
1969 1 0.596958 0.200922 0.0478159 1.67046 -3.32513 0.685124 0.0513665 0.12274
1966 1 0.574513 0.226337 0.0478374 0.366438 -3.27725 -0.0384321 0.0105545 0.293835
1970 1 0.624884 0.224902 0.0497506 0.654446 -3.34173 -0.0331673 0.351701 -0.33428
376 1 0.649744 0.226003 0.025786 0.555945 -3.25939 -0.0979518 -0.65284 -0.21605
451 1 0.625661 0.249846 0.0243119 0.413089 -3.3174 -0.136405 0.240277 -0.194225
2053 1 0.650672 0.252074 0.0503497 1.02227 -3.27193 -0.285398 -0.585491 0.0224903
370 1 0.625528 0.225939 -0.000432016 0.278821 -3.32942 -0.0405296 -0.0996919 0.0407281
375 1 0.677233 0.201302 0.0262176 1.07012 -3.31811 -0.387146 -0.302874 -0.363011