ITEM: TIMESTEP
7750
ITEM: NUMBER OF ATOMS
32000
ITEM: BOX BOUNDS pp pp pp
3.0094667466244718e+00 7.7990533253375574e+01
-1.4914337070420345e+00 8.2491433707042120e+01
-1.5026580707763486e+00 8.2502658070775766e+01
ITEM: ATOMS id type xs ys zs c_csym c_peratom fx fy fz
8 1 0.04948 0.0245543 0.02537 0.498998 -3.33777 0.0645186 -0.164924 0.152029
4 1 1.00089 0.025462 0.0254968 0.556831 -3.33565 0.206982 -0.183613 0.24708
3 1 0.0236511 0.998618 0.0244382 1.65665 -3.33343 0.19118 0.389044 0.301844
1605 1 0.0491822 0.998326 0.0497038 1.1935 -3.35581 -0.121615 0.596226 0.28247
12 1 0.0996125 0.0263956 0.0245392 0.335436 -3.29909 0.0102091 -0.222271 0.532592
87 1 0.0739768 0.050738 0.0238368 0.661939 -3.36815 0.139417 0.00987346 0.491442
1606 1 0.0726033 0.0260035 0.0504815 0.821907 -3.31919 0.567264 -0.277151 -0.100368
7 1 0.0756497 0.999735 0.0262154 0.662298 -3.26803 0.0915891 0.369536 0.119998
16 1 0.149436 0.0248487 0.0258373 0.477087 -3.28277 -0.0347885 -0.18177 -0.2089
1610 1 0.124985 0.0274882 0.0500439 0.779216 -3.26237 0.0139822 -0.431897 0.116148
10 1 0.124182 0.0258594 0.00108835 0.699695 -3.30309 0.582372 -0.329226 -0.183989
11 1 0.125832 0.999922 0.0239379 0.434745 -3.34166 -0.351574 0.0707299 -0.0021941
20 1 0.201408 0.0249902 0.0236376 0.869329 -3.33724 -0.0376193 -0.335952 0.269762
24 1 0.250532 0.0270389 0.0236417 1.49955 -3.28671 0.373828 -0.829203 0.468171
1618 1 0.224926 0.0245876 0.050133 0.382178 -3.2889 -0.074412 -0.397615 -0.464154
23 1 0.274657 4.46459e-05 0.0247189 0.358385 -3.30314 -0.269389 0.327833 -0.197458
103 1 0.277343 0.0512031 0.0254278 1.10238 -3.29117 -0.520588 -0.293754 0.0543246
99 1 0.22656 0.049492 0.0256726 0.483404 -3.25793 -0.675335 0.443684 -0.378333
28 1 0.300129 0.0238321 0.0240461 0.739332 -3.30944 -0.0937066 0.290008 -0.152615
1705 1 0.298093 0.0508018 0.0516784 1.48985 -3.26052 0.7611 0.147655 -0.281561
107 1 0.322518 0.0491849 0.0249966 1.11063 -3.27413 0.232787 0.190614 0.00224106
27 1 0.32608 0.998495 0.0246071 1.17483 -3.22363 -0.239602 0.565161 -0.244161
105 1 0.298456 0.0509125 -0.000235717 0.771207 -3.3329 0.0936658 -0.308308 -0.52639
32 1 0.348841 0.0268177 0.0243163 0.469887 -3.36959 0.239745 -0.437789 0.10487
30 1 0.37383 0.0254253 0.998275 0.744882 -3.23928 -0.322994 0.192182 0.605075
31 1 0.37506 0.00112145 0.0227587 0.878314 -3.33656 -0.218825 -0.136285 0.598504
1630 1 0.373984 0.0260606 0.0512026 0.817455 -3.30972 -0.229929 -0.222046 -0.496063
1629 1 0.348726 -0.000500842 0.0487849 0.669508 -3.36484 0.515066 0.533724 0.452797
36 1 0.39983 0.0246731 0.0263219 0.829515 -3.3227 -0.428253 0.339984 -0.485791
35 1 0.423717 0.000846087 0.0253516 0.731973 -3.33028 -0.0271806 -0.292089 -0.251858
1633 1 0.396833 0.00127036 0.0505763 1.80579 -3.23984 0.764594 -0.27939 -0.817158
40 1 0.450624 0.0236337 0.0239376 0.565882 -3.2878 -0.0187876 0.252942 0.00390351
1717 1 0.450322 0.0485368 0.0500533 0.37669 -3.314 -0.266988 0.229927 0.0445571
44 1 0.50027 0.0257305 0.0221344 0.903442 -3.33813 0.477236 -0.0568831 0.443478
39 1 0.476738 1.00033 0.0248877 0.631764 -3.3501 -0.0543802 0.040768 -0.184832
1638 1 0.476281 0.0267055 0.048443 0.995954 -3.29019 0.0468226 -0.625442 0.0311355
38 1 0.47465 0.0260688 0.999203 0.52468 -3.27233 0.0699571 -0.455647 -0.0446967
48 1 0.549662 0.0293157 0.0262201 2.57326 -3.27393 0.47009 -1.05842 -0.117463
43 1 0.52656 -0.000716386 0.0248639 0.897033 -3.33417 -0.0962738 0.729349 -0.126641
1645 1 0.54928 -0.000129267 0.0529956 1.5158 -3.20825 0.0420347 0.260449 -1.19665
52 1 0.602906 0.0290059 0.0248687 1.56648 -3.28775 -0.447015 -0.621185 0.469657
47 1 0.576126 1.00182 0.0270431 1.03336 -3.34261 -0.511006 0.657499 -0.112297
1646 1 0.576315 0.0265731 0.0529172 1.19151 -3.31705 -0.348459 -0.0969339 -0.771364
1649 1 0.601885 0.00253316 0.0507528 0.699698 -3.2929 -0.407885 -0.162972 -0.168641
49 1 0.599855 1.00231 1.00057 0.801614 -3.32509 0.067372 -0.174089 0.0485266
56 1 0.650221 0.0295687 0.0237406 1.95627 -3.27832 -0.230135 -0.702653 0.66235
1653 1 0.649397 0.00236131 0.0501351 0.71919 -3.2616 0.0918803 -0.600414 -0.0261423
131 1 0.624663 0.0542113 0.0248143 0.776799 -3.31994 0.0637018 0.107122 0.098688
51 1 0.624618 0.00206143 0.0250419 0.332589 -3.3297 0.197137 -0.146655 0.0310534
1650 1 0.627901 0.0268609 0.0518221 1.61958 -3.28511 -0.575138 0.5437 -0.497168
55 1 0.672047 0.000802046 0.0257482 0.920245 -3.33141 -0.0312281 0.0706731 -0.216213
60 1 0.699246 0.0251309 0.0243883 0.345961 -3.30853 -0.0118291 -0.00623869 0.407985
1654 1 0.674498 0.0259248 0.05099 0.362578 -3.32603 0.0695018 0.11204 -0.267235
64 1 0.751247 0.0278867 0.023375 1.39327 -3.32798 -0.353903 -0.459919 0.328556
59 1 0.725055 0.000762874 0.02303 0.672255 -3.36955 0.158891 0.0704706 0.264781
63 1 0.773309 0.000901045 0.0250162 0.823997 -3.29722 0.479787 0.157333 0.226378
58 1 0.723647 0.0247438 0.999563 0.671805 -3.31321 0.244668 0.0976806 0.111915
1661 1 0.749215 -0.000250254 0.0504357 0.837211 -3.32239 0.0219396 0.253267 -0.489899
68 1 0.799541 0.0240775 0.0272474 1.98364 -3.29158 0.00974206 0.218895 -0.637534
147 1 0.825036 0.049072 0.0252172 0.548356 -3.30906 -0.517314 0.278443 0.00872621
67 1 0.824032 0.000199431 0.0224978 1.62121 -3.33521 0.344015 0.0192801 0.494787
1665 1 0.800939 -0.00105853 0.0494112 0.643241 -3.27915 -0.249596 0.412301 0.122633
1666 1 0.826596 0.0227146 0.0495619 0.965775 -3.33027 -0.0924156 0.191907 0.399672
1745 1 0.799412 0.0490608 0.0496946 0.609598 -3.33074 0.37937 0.277002 0.113238
66 1 0.823148 0.0265931 1.00003 0.719058 -3.31055 0.122763 -0.442481 0.0742215
72 1 0.849951 0.0266402 0.0244896 0.559177 -3.28763 0.0279479 -0.688449 0.113645
151 1 0.873306 0.0518138 0.0254435 0.763387 -3.25266 -0.00779333 -0.336638 -0.208682
71 1 0.873834 8.51254e-05 0.0239863 0.517966 -3.28346 0.360941 0.230811 0.420164
69 1 0.850868 1.0003 1.00058 0.852051 -3.27043 -0.585836 0.611197 -0.555198
76 1 0.898371 0.0257141 0.0244714 0.378899 -3.32113 0.245546 -0.156448 -0.0875795
75 1 0.923039 1.00095 0.0260003 0.774718 -3.3506 0.421358 -0.104953 -0.362723
80 1 0.95118 0.0247024 0.0249873 0.474638 -3.33438 -0.396474 -0.08958 0.0176786
79 1 0.976751 1.00071 0.027032 1.0851 -3.26891 -0.264709 -0.486671 0.224783
157 1 0.948843 0.050635 0.000152201 0.425374 -3.3299 0.129215 -0.373115 0.199571
78 1 0.975231 0.024365 0.000419174 0.464015 -3.30059 -0.451843 0.422367 -0.031657
77 1 0.950492 0.998632 1.00118 0.860102 -3.378 -0.379461 0.283943 -0.0179938
83 1 0.0274997 0.0498681 0.0253782 0.799266 -3.28594 -0.204732 -0.0854997 -0.00925281
88 1 0.050016 0.0759469 0.0251311 0.244076 -3.27555 0.435587 -0.0544655 -0.119446
84 1 1.0012 0.0731735 0.0255913 0.864254 -3.29524 -0.45387 0.310964 -0.00708611
1765 1 0.0512798 0.0990969 0.0501756 0.545708 -3.3131 -0.401056 0.573502 -0.0676855
165 1 0.0514311 0.102653 0.999079 1.72268 -3.30549 -0.306343 -0.389045 0.437912
85 1 0.0517055 0.0495496 -0.000948441 1.10389 -3.27438 -0.256539 0.397428 0.337318
82 1 0.0254186 0.0763594 0.00177641 0.812516 -3.35062 0.0554922 -0.306285 -0.571209
92 1 0.0993554 0.0761835 0.0251267 0.186023 -3.36582 0.28675 -0.158477 0.0831795
1686 1 0.0749241 0.0753402 0.0503098 0.172684 -3.29662 0.185204 -0.286718 -0.107264
86 1 0.0747431 0.0776835 1.00059 0.934846 -3.30921 -0.0672699 -0.65221 -0.169494
91 1 0.125044 0.0506323 0.0249267 0.100668 -3.2989 0.12526 0.216459 -0.0512052
96 1 0.151098 0.0750515 0.0241102 0.499697 -3.29964 -0.157895 -0.124516 0.222848
1690 1 0.126294 0.0742396 0.0501703 0.786395 -3.34196 -0.176431 0.343138 -0.00241575
95 1 0.17404 0.0482227 0.0246649 0.596406 -3.28633 0.495611 0.35704 0.199369
100 1 0.198777 0.074141 0.0252689 0.460759 -3.35133 0.0755972 -0.160219 0.0813197
175 1 0.175294 0.100567 0.0265012 0.491742 -3.27492 -0.0743441 -0.141829 0.337522
1777 1 0.201216 0.0996979 0.0515611 0.848587 -3.28971 -0.40775 -0.104192 -0.428842
104 1 0.251586 0.0754468 0.023641 0.734097 -3.32039 -0.0748451 -0.183363 0.471561
1701 1 0.249734 0.0488311 0.0488305 0.604073 -3.31263 0.614301 0.266615 0.385177
179 1 0.224661 0.0977324 0.0247916 0.92729 -3.29641 0.00518822 0.401182 0.108504
183 1 0.275506 0.101177 0.0266519 0.76208 -3.3091 -0.110465 -0.344176 -0.30323
1698 1 0.224344 0.0742009 0.0497 0.234852 -3.33219 0.213628 -0.239251 -0.0404502
1702 1 0.27509 0.0764198 0.0501868 0.619536 -3.35499 0.117567 -0.129141 -0.250249
108 1 0.301522 0.074515 0.0236054 1.44165 -3.32444 -0.114444 0.77092 0.357372
187 1 0.324222 0.101618 0.0249227 0.682822 -3.36152 -0.133137 -0.0863488 0.250105
106 1 0.325073 0.0743909 0.997235 1.93805 -3.23925 -0.180863 0.235879 0.559206
111 1 0.37486 0.0511751 0.026247 0.524414 -3.34987 0.256064 -0.11951 -0.162648
112 1 0.346584 0.0753752 0.0237352 1.83483 -3.33332 0.14608 -0.118153 0.559333
191 1 0.374098 0.0984162 0.0255194 0.749485 -3.34094 0.0782423 0.151703 0.266049
115 1 0.424936 0.0497929 0.0249121 0.163659 -3.32314 0.0621005 -0.0188139 -0.123661
116 1 0.401285 0.0759671 0.0270174 0.957745 -3.3335 -0.268588 -0.193599 -0.447095
119 1 0.474417 0.0493979 0.024107 0.359087 -3.31962 0.32825 0.175228 0.0877126
120 1 0.450867 0.0743559 0.024202 0.366827 -3.33828 0.0359445 0.187749 0.184053
197 1 0.449692 0.0998264 0.00149575 0.763107 -3.32469 0.384864 0.0322744 -0.37259
124 1 0.49957 0.0740423 0.0237743 0.625972 -3.32433 0.126046 0.13713 0.239989
1718 1 0.474718 0.0731966 0.0498107 0.326201 -3.33166 0.154001 0.159159 -0.166365
123 1 0.52523 0.0520867 0.0255022 1.02024 -3.19832 -0.252905 -0.504058 -0.408399
128 1 0.548029 0.0752839 0.0226897 1.68502 -3.28401 0.669015 0.504906 0.345172
1725 1 0.552676 0.0520648 0.0508511 1.42753 -3.32102 -0.433151 -0.348945 -0.133896
1722 1 0.525726 0.0752237 0.0489781 0.418818 -3.3502 -0.0707085 0.0423995 0.386716
1801 1 0.5003 0.0993839 0.0501887 0.173225 -3.33269 -0.00250157 0.0316276 0.0533203
122 1 0.523827 0.0751462 -0.00244603 1.25391 -3.29193 0.57464 -0.31421 0.171856
127 1 0.576903 0.0509943 0.0234116 1.39501 -3.24581 -0.0318317 0.523909 0.78334
132 1 0.599078 0.0802271 0.024893 2.32999 -3.3177 0.299445 -0.640205 -0.203073
126 1 0.574843 0.0761884 -0.00187227 0.858769 -3.3192 -0.357359 0.106099 0.550643
207 1 0.571342 0.100775 0.0257055 1.59107 -3.3337 0.151532 0.329013 -0.290658
1729 1 0.600772 0.0530089 0.0499503 0.335164 -3.30902 -0.108605 -0.431848 -0.105632
136 1 0.651266 0.0774852 0.0243205 0.426448 -3.30659 -0.241391 -0.0652348 0.361759
1730 1 0.624642 0.0792904 0.0495432 0.758171 -3.29843 0.336208 -0.43783 -0.134375
1733 1 0.65078 0.0533086 0.0500257 0.441555 -3.32162 -0.203809 -0.310375 -0.0955599
135 1 0.67527 0.0509173 0.0257919 0.368516 -3.24598 -0.0151602 0.183108 -0.308939
140 1 0.69951 0.0747517 0.0260233 0.443056 -3.31342 0.263217 0.261387 -0.617592
134 1 0.673201 0.0761472 -2.07005e-05 0.703727 -3.33206 0.712765 -0.242464 -0.333129
137 1 0.699183 0.0491623 0.0010636 0.723042 -3.30207 0.399346 0.811756 -0.297581
143 1 0.776723 0.0520866 0.0233349 1.07385 -3.33605 -0.257026 0.06022 0.430805
139 1 0.725474 0.0504822 0.0253821 0.223254 -3.35032 -0.198291 0.128726 -0.109306
1741 1 0.750783 0.0509158 0.0504887 0.381172 -3.31518 0.264544 -0.0400546 -0.450149
144 1 0.750605 0.0763057 0.024464 0.321575 -3.33593 0.334827 -0.187197 0.188553
142 1 0.775171 0.0770516 0.998624 0.547529 -3.32903 -0.0138838 -0.185651 0.413764
138 1 0.725444 0.0762686 0.00160777 0.733833 -3.31864 -0.277875 -0.403955 -0.517506
219 1 0.724983 0.100619 0.023539 0.631614 -3.2703 -0.162113 -0.164842 0.583672
223 1 0.776213 0.102997 0.026401 1.43266 -3.21626 -0.533637 -1.05163 -0.456702
1821 1 0.750278 0.0985074 0.0493015 1.25222 -3.31798 -0.131687 0.485477 0.15011
148 1 0.802173 0.0770917 0.0254831 0.906123 -3.3146 -0.55797 -0.62164 -0.302911
152 1 0.847201 0.0756737 0.0231687 1.70536 -3.24306 0.479069 0.0312273 0.129022
1750 1 0.874587 0.0749314 0.0475449 1.04967 -3.3022 -0.415564 0.216016 0.443336
231 1 0.874846 0.0997046 0.0229236 0.838684 -3.34088 0.13678 0.00667639 0.611479
1749 1 0.850113 0.0487924 0.0508894 0.734895 -3.26187 0.0973967 -0.0367255 -0.208067
155 1 0.925407 0.0490581 0.0267769 1.13233 -3.29785 -0.00855452 0.171386 -0.714872
156 1 0.901024 0.0737263 0.0245537 0.765091 -3.33417 0.101265 0.422396 -0.0351473
1754 1 0.924752 0.0729386 0.050883 1.00588 -3.31968 0.0966576 0.595913 -0.558319
154 1 0.925006 0.0749649 -0.000652919 0.205986 -3.27751 -0.181473 -0.050672 0.38104
159 1 0.975359 0.0499545 0.024138 0.442117 -3.31905 -0.420224 0.147543 0.474831
81 1 0.00071318 0.0492269 0.00241242 0.769055 -3.30264 0.013986 0.323158 -0.532352
161 1 0.999319 0.101133 0.000535056 0.730777 -3.29295 -0.0491054 -0.312631 -0.0555763
160 1 0.950787 0.076386 0.0233334 1.32999 -3.32879 -0.54495 -0.675524 0.57481
158 1 0.974686 0.0762733 -0.00172603 1.24694 -3.21814 0.257783 -0.338785 0.957889
239 1 0.97549 0.0976932 0.0242211 1.34884 -3.30375 0.035118 0.642073 0.408164
1758 1 0.974813 0.0744929 0.0520011 1.03388 -3.32757 -0.109171 -0.28423 -0.86467
1761 1 -0.0013799 0.0983268 0.0501696 0.565841 -3.35513 0.366036 0.400499 0.0713072
163 1 0.0251966 0.09994 0.0254943 0.0545314 -3.30928 -0.00775265 0.0710917 -0.0551724
168 1 0.0495567 0.126327 0.0256317 0.55838 -3.30559 0.416052 -0.448212 0.103544
1762 1 0.0249052 0.124044 0.0484814 0.688342 -3.29949 0.1667 0.0180264 0.754226
243 1 0.0256867 0.149982 0.0254048 0.353021 -3.28703 -0.0277002 0.167994 -0.110012
245 1 0.049978 0.149248 1.00068 0.442179 -3.27397 -0.473016 0.168826 -0.326012
167 1 0.0752207 0.10168 0.0257999 0.287331 -3.30147 -0.114979 -0.0720649 0.210206
172 1 0.101679 0.126768 0.0268458 1.13614 -3.30181 -0.315269 -0.0579248 -0.585902
1766 1 0.0778083 0.126242 0.0514111 1.36268 -3.2956 -0.87002 -0.256248 -0.251514
1769 1 0.100286 0.100085 0.0509583 0.284384 -3.32427 0.111048 -0.260734 -0.164405
249 1 0.102033 0.150444 0.997635 1.71536 -3.25007 -0.0578999 -0.280264 1.13854
171 1 0.125986 0.100459 0.0260803 0.425449 -3.32065 -0.472718 -0.186355 -0.217465
176 1 0.150035 0.12519 0.027052 0.648738 -3.30157 0.218959 0.0238128 0.0470967
251 1 0.126901 0.149371 0.0237788 1.22552 -3.29765 -0.613048 0.437456 0.509686
1773 1 0.148349 0.101097 0.0502669 0.977262 -3.31377 0.448928 -0.164139 0.503999
170 1 0.125705 0.122668 -0.000103602 1.37049 -3.30856 -0.370062 0.37636 0.124324
253 1 0.150167 0.147239 0.000513965 1.7446 -3.18744 -0.199912 0.76503 -0.535441
180 1 0.199487 0.124185 0.0241948 0.612943 -3.28169 0.0682288 0.291076 0.455534
1774 1 0.177132 0.125402 0.0516543 1.26135 -3.32181 -0.59658 -0.222293 -0.529223
257 1 0.199079 0.151356 1.00019 0.540711 -3.23511 0.186011 -0.505747 -0.290747
255 1 0.174003 0.150554 0.0231391 1.03471 -3.26717 -0.0540618 -0.360633 0.924893
174 1 0.176033 0.125909 0.999236 0.648209 -3.27475 0.316195 -0.356013 0.0909171
184 1 0.250026 0.126121 0.0259697 0.541888 -3.32357 -0.382292 -0.228493 -0.239926
259 1 0.222823 0.149112 0.0256624 1.07988 -3.33151 0.669758 0.278464 -0.157761
1778 1 0.224808 0.124418 0.0495019 0.484672 -3.31388 -0.196855 0.360346 0.0992113
261 1 0.250546 0.150303 -0.000583987 0.615001 -3.24245 -0.300577 0.0929876 0.290413
182 1 0.273586 0.124809 1.0004 0.6427 -3.23172 0.367436 0.368548 0.360562
178 1 0.224609 0.12484 1.00027 0.31911 -3.37434 0.116176 0.0215663 -0.114066
188 1 0.297603 0.126782 0.0263277 0.89141 -3.2817 0.705497 -0.0263873 -0.584175
1865 1 0.299039 0.151233 0.0492331 0.522423 -3.3111 0.0191472 -0.163661 0.216702
186 1 0.324165 0.124904 1.00071 0.191071 -3.33939 0.108487 0.146314 0.163811
192 1 0.351803 0.125139 0.0264937 0.660378 -3.33732 -0.180654 -0.0637426 -0.146635
271 1 0.377561 0.149832 0.0259274 0.821684 -3.32518 -0.331783 -0.000238139 0.0305057
195 1 0.425206 0.102514 0.0242921 1.64892 -3.24754 -0.0288102 -0.708635 0.651252
196 1 0.398346 0.123852 0.0261834 1.01378 -3.31569 0.323498 0.242347 0.0719576
194 1 0.425262 0.125418 0.999685 0.355478 -3.23681 -0.0455863 -0.0248838 0.407439
199 1 0.476871 0.0989419 0.0247814 0.61245 -3.30294 -0.550067 0.281363 0.186847
200 1 0.449109 0.125267 0.0253916 0.296051 -3.30606 0.587071 -0.0106824 0.0219425
279 1 0.473724 0.150545 0.0246214 0.0851022 -3.34379 -0.074884 -0.0944438 -0.0775042
204 1 0.500288 0.124688 0.025258 0.406979 -3.31895 -0.561022 0.291626 0.261275
1798 1 0.474268 0.122672 0.0512365 1.11409 -3.28995 0.213507 0.298275 -0.468574
1805 1 0.549017 0.101016 0.0508577 0.509146 -3.23952 0.270361 -0.293446 -0.0326108
203 1 0.525318 0.101914 0.02621 1.16229 -3.24671 -0.00612078 -0.453812 -0.0214318
1802 1 0.526523 0.126077 0.049952 1.03928 -3.25754 -0.749253 -0.0720916 0.0975872
208 1 0.547253 0.128989 0.0243784 2.06414 -3.26006 0.324944 -0.600496 -0.0945131
201 1 0.501694 0.099524 0.00118086 1.34349 -3.25176 -0.412904 0.238514 -0.324368
212 1 0.598943 0.126424 0.0241558 0.548845 -3.3551 0.209853 -0.0668197 0.165903
287 1 0.573341 0.150658 0.0254945 0.592097 -3.34575 0.377328 0.42887 -0.00937353
1809 1 0.599483 0.100861 0.0513792 0.783512 -3.21416 0.094527 0.317718 -0.463026
211 1 0.627234 0.102505 0.022816 1.75145 -3.31974 -0.41003 -0.0491688 0.568862
1813 1 0.650056 0.102456 0.0505377 0.581221 -3.37833 0.215921 -0.177257 0.00974141
1810 1 0.623766 0.125111 0.0498836 0.769765 -3.33601 0.157839 0.0584666 -0.0359457
216 1 0.650719 0.12702 0.0245792 0.592405 -3.19314 -0.557479 -0.966003 0.210904
210 1 0.625719 0.125907 -0.000896797 0.309528 -3.31865 -0.217585 0.213885 0.232805
215 1 0.675887 0.102877 0.025884 1.13331 -3.36116 -0.230226 -0.537633 -0.292679
220 1 0.701584 0.125277 0.0252302 0.645897 -3.29892 -0.218276 0.275493 0.0102456
224 1 0.749364 0.124979 0.0240466 0.854294 -3.30706 0.293388 0.305145 0.198519
222 1 0.775987 0.125455 0.999704 0.379396 -3.28624 -0.285112 0.00288762 0.0110144
1818 1 0.727875 0.12669 0.0493417 1.11202 -3.32587 -0.274765 -0.338607 0.179948
1822 1 0.775132 0.125412 0.0493716 0.293138 -3.29663 -0.357287 0.0410071 0.224886
1901 1 0.752786 0.151397 0.0488956 0.816449 -3.30455 -0.536524 0.0762395 0.0346415
227 1 0.824868 0.100828 0.0248447 0.500967 -3.25684 0.533509 0.433287 0.144163
1825 1 0.800964 0.100695 0.0494773 0.192018 -3.29726 0.241719 -0.207129 0.415761
228 1 0.799303 0.125694 0.0240639 0.379256 -3.25735 0.888271 0.525635 0.130991
1829 1 0.850384 0.101402 0.0511427 1.49618 -3.32857 -0.0545762 -0.670975 -0.702672
232 1 0.850558 0.125913 0.024008 0.158934 -3.35004 0.0662518 -0.114743 0.0918991
311 1 0.876631 0.149766 0.0235379 0.467451 -3.27718 -0.321628 -0.202424 0.206631
1830 1 0.874961 0.12447 0.0488948 0.226318 -3.2851 -0.0949968 0.234784 0.33644
309 1 0.852317 0.150206 0.9987 0.449704 -3.29707 -0.517504 -0.476027 -0.0432931
235 1 0.925177 0.100382 0.0255392 0.406366 -3.34143 0.0748087 -0.323378 -0.175872
236 1 0.899593 0.124633 0.0269619 1.62133 -3.28315 0.439388 -0.101631 -0.656521
315 1 0.925571 0.149162 0.0246356 0.309084 -3.27883 -0.449132 -0.289025 -0.0363671
237 1 0.949345 0.100303 -0.00167878 0.581013 -3.28258 -0.269527 0.066983 0.317991
164 1 0.999618 0.12379 0.0265663 0.902709 -3.31139 -0.469323 0.237861 -0.503921
240 1 0.950818 0.124332 0.026102 0.796407 -3.29616 -0.11216 -0.0348577 -0.341124
1838 1 0.973795 0.125772 0.0496017 0.452953 -3.26927 0.431835 -0.345212 0.144844
248 1 0.0504557 0.175839 0.0252997 0.444428 -3.31552 -0.722945 0.0966769 -0.107896
244 1 0.00328237 0.17486 0.0263421 2.35715 -3.24215 -0.106859 0.100034 -0.740204
323 1 0.0264571 0.202172 0.0233169 1.49338 -3.29253 -0.410766 -0.725946 0.340531
1841 1 0.000375652 0.149337 0.0490726 0.55516 -3.29091 -0.193459 0.0700227 -0.00451804
247 1 0.0734595 0.151141 0.0235843 1.9628 -3.25249 0.918804 -0.269182 0.661754
252 1 0.0998204 0.175284 0.0252963 0.481722 -3.31694 0.525543 -0.447088 0.332856
246 1 0.077052 0.174686 0.00135931 1.26757 -3.19307 -0.55182 -0.082243 -0.515449
327 1 0.075278 0.199357 0.0230785 1.41162 -3.24676 0.220527 0.404943 0.735697
329 1 0.100901 0.197804 0.000306972 1.38685 -3.30447 0.300083 0.774818 -0.3206
256 1 0.149638 0.175015 0.0246505 0.318521 -3.33498 -0.00784275 0.25592 0.00523897
250 1 0.126407 0.175103 -0.00199969 1.03558 -3.3331 0.174417 0.0305884 0.498996
260 1 0.197537 0.174233 0.02329 1.41763 -3.22076 0.592991 0.338864 0.679578
337 1 0.20011 0.200399 0.00176036 0.639401 -3.3373 0.117254 0.0643954 -0.524934
1937 1 0.200046 0.198453 0.0494 0.636795 -3.26856 0.333537 0.537244 0.45097
254 1 0.17414 0.176176 1.00014 0.5345 -3.29953 -0.469425 0.00170966 -0.381888
263 1 0.271584 0.152189 0.0240036 1.97206 -3.29456 0.685977 0.0303943 0.334766
1861 1 0.250385 0.15275 0.0511964 1.40968 -3.28406 -0.385826 -0.4206 -0.419344
264 1 0.250259 0.178122 0.0243031 1.44586 -3.33736 -0.0256597 -0.372829 0.157461
258 1 0.225151 0.174135 0.000864779 0.685322 -3.32967 0.132622 0.487913 -0.0277696
339 1 0.224884 0.201767 0.0251359 0.590958 -3.28037 0.214446 -0.652008 0.035808
1862 1 0.275313 0.175614 0.0502184 0.409231 -3.28697 0.0646395 0.225643 -0.106981
267 1 0.325447 0.149545 0.025249 0.208804 -3.31383 0.0243431 0.0215024 0.0733064
268 1 0.300513 0.175393 0.0267035 0.657846 -3.31134 0.0059866 -0.258251 -0.280687
347 1 0.326488 0.198877 0.0238343 0.788346 -3.36255 0.254489 0.279103 0.276546
266 1 0.324807 0.172818 1.00168 1.26026 -3.30664 0.25204 0.50766 -0.445105
1866 1 0.326588 0.174543 0.0513361 0.805146 -3.34477 -0.125129 0.185695 -0.393763
272 1 0.351927 0.174572 0.023661 0.943346 -3.31506 -0.236686 -0.19637 0.527911
1870 1 0.376262 0.174015 0.0519028 0.806747 -3.33713 -0.148185 0.151475 -0.511952
275 1 0.424516 0.149774 0.024066 0.309708 -3.34535 -0.28372 0.0780598 0.397858
276 1 0.40008 0.175178 0.0232992 1.08045 -3.29936 0.338659 0.281546 0.895382
355 1 0.425211 0.202109 0.0269919 1.77113 -3.28837 0.0233362 -0.504621 -0.7565
280 1 0.447817 0.176595 0.0227381 1.53826 -3.31227 0.112254 -0.406555 0.398713
278 1 0.472298 0.177403 0.99723 2.20873 -3.13146 0.861954 -0.830554 1.21491
359 1 0.473658 0.199224 0.0255281 1.08811 -3.31251 0.0747744 0.398697 -0.0240395
1881 1 0.497694 0.149508 0.049784 0.662401 -3.30631 0.469695 0.0190244 -0.402881
1878 1 0.4724 0.173769 0.0495031 1.0435 -3.32351 0.364882 0.296378 -0.190739
357 1 0.450834 0.200535 1.00032 0.771556 -3.23805 -0.795097 0.629301 -0.0358782
283 1 0.521564 0.151384 0.0238528 0.970018 -3.2933 0.21137 0.107497 0.269589
284 1 0.497936 0.176019 0.0242176 0.369595 -3.33667 0.213053 0.0270665 0.150978
288 1 0.547421 0.176494 0.026083 0.854987 -3.35285 0.447084 -0.548242 -0.0335833
363 1 0.525938 0.201346 0.027307 1.10921 -3.21644 -0.833218 -0.552143 -0.518778
1882 1 0.522275 0.175095 0.0517035 0.98635 -3.27021 0.768524 0.02918 -1.05738
282 1 0.523451 0.175645 0.000631186 0.51791 -3.35274 0.0973365 0.324579 -0.160773
1889 1 0.599808 0.149178 0.0494015 0.774937 -3.3079 -0.321632 0.353501 -0.070841
1886 1 0.576722 0.175614 0.05022 0.795456 -3.35343 -0.679889 -0.698867 0.070863
292 1 0.60199 0.176528 0.0259784 0.641593 -3.24194 -0.425709 -0.629358 -0.278012
369 1 0.600124 0.200461 1.00061 0.320869 -3.32304 0.446923 0.629469 -0.00745046
291 1 0.627605 0.151024 0.0251595 0.838195 -3.35447 -0.336494 0.061062 0.239953
1893 1 0.650858 0.148542 0.0527823 2.78805 -3.28306 -0.379169 0.413759 -0.351196
371 1 0.625575 0.200401 0.0256402 0.127117 -3.29015 -0.11506 0.36104 -0.180329
296 1 0.651539 0.177593 0.0242271 1.65752 -3.28143 -0.0855406 -0.488782 0.311583
290 1 0.626209 0.175447 1.00077 0.277017 -3.26545 0.115241 0.27169 -0.137494
297 1 0.69921 0.149066 1.00055 0.756133 -3.37248 -0.101362 0.375168 0.177793
295 1 0.671969 0.149628 0.0262109 2.12124 -3.23004 1.17816 0.804507 -0.113822
300 1 0.69896 0.175736 0.0253987 0.665001 -3.35844 0.111129 -0.485263 -0.133536
1897 1 0.700202 0.148108 0.0497558 1.8758 -3.27565 0.367549 1.02043 -0.109586
299 1 0.725405 0.152782 0.0257336 1.18996 -3.34118 0.00999972 -0.223871 0.123486
303 1 0.775436 0.149979 0.0240274 0.407034 -3.29559 0.0437001 0.222497 -0.216642
304 1 0.751967 0.177086 0.0252239 0.548355 -3.31557 0.0172942 -0.548777 0.259126
1902 1 0.776898 0.175903 0.0519104 0.924581 -3.30601 -0.0719699 0.167343 -0.235995
379 1 0.725353 0.198882 0.0272611 0.981297 -3.26653 -0.00869266 0.346628 -0.46991
383 1 0.776473 0.200078 0.025567 0.348269 -3.2306 -0.0542107 0.407748 -0.158218
1898 1 0.727051 0.177376 0.0517902 1.13326 -3.30442 -0.0283461 -0.523927 -0.375663
307 1 0.826055 0.150904 0.0236135 0.218756 -3.35698 -0.354242 -0.174885 0.0434073
308 1 0.79859 0.176206 0.025168 1.31748 -3.28963 0.721148 -0.560733 -0.0676217
1905 1 0.799283 0.1499 0.0487076 0.537327 -3.31559 0.29963 0.222834 -0.120962
387 1 0.825481 0.198609 0.0241144 0.557887 -3.35128 0.0542762 0.25013 -0.0611232
312 1 0.852372 0.17409 0.0242231 0.487423 -3.3092 -0.207348 0.248384 -0.0669724
1989 1 0.849977 0.198494 0.0506558 0.59162 -3.29261 0.0112845 0.451485 -0.564227
1910 1 0.874967 0.174872 0.0495906 0.120415 -3.29914 0.110497 -0.169178 0.16297
310 1 0.874427 0.1739 0.997475 0.746004 -3.28043 0.542069 0.0814707 0.135725
316 1 0.899268 0.17401 0.0241236 0.348057 -3.30165 0.23604 0.186581 -0.370182
314 1 0.9268 0.173042 -0.0016535 0.642649 -3.30971 -0.697584 0.013233 0.129281
319 1 0.975174 0.15231 0.0240461 1.86164 -3.35422 0.19358 -0.688844 0.181469
320 1 0.947705 0.173457 0.025115 1.58782 -3.24457 0.861533 0.50924 -0.318974
399 1 0.974784 0.197528 0.024086 0.985793 -3.25583 -0.115866 0.552114 -0.00660254
325 1 0.052287 0.201386 0.998803 0.852334 -3.30117 -0.308907 -0.297586 -0.155187
328 1 0.0510244 0.223406 0.0240899 0.773144 -3.26189 0.392788 0.814356 0.281234
403 1 0.0264825 0.249174 0.0236355 0.490727 -3.36253 -0.0403872 0.190055 0.0978011
2005 1 0.0509171 0.248787 0.0499568 0.588168 -3.32013 -0.186292 0.205033 0.0241062
321 1 -0.000759768 0.197579 1.00017 1.26213 -3.22572 0.709754 1.14962 -0.25522
332 1 0.10045 0.224669 0.0279704 1.27009 -3.25532 -0.116987 0.139316 -0.652397
407 1 0.0759478 0.250607 0.0254906 0.365263 -3.30145 -0.431676 -0.198565 -0.284293
326 1 0.0784401 0.225362 1.00005 1.23989 -3.31654 0.280233 -0.394571 0.0660944
331 1 0.124023 0.200677 0.026525 0.649337 -3.28548 0.216458 -0.443473 -0.460367
336 1 0.149098 0.223698 0.0244403 1.10047 -3.33088 0.460731 0.415923 0.405194
411 1 0.126261 0.250851 0.0246741 0.652043 -3.32471 -0.157957 0.0484233 0.23893
330 1 0.122799 0.226893 0.00256621 6.98774 -3.28236 0.418405 -0.651754 -0.628462
413 1 0.150877 0.250508 0.000122435 0.497106 -3.27178 -0.314486 -0.0482527 -0.0262303
335 1 0.176086 0.200151 0.0268717 1.08498 -3.27266 -0.820804 -0.00689009 -0.48162
340 1 0.200227 0.223721 0.0254861 0.618072 -3.26502 -0.180178 0.633321 0.0279542
415 1 0.176736 0.24918 0.0226095 2.20856 -3.28485 -0.37692 -0.0357264 0.844798
334 1 0.176054 0.226499 -0.000350781 0.44326 -3.31662 0.178873 -0.245877 0.040414
417 1 0.199992 0.252409 0.998238 1.44401 -3.28293 0.0873051 -0.365606 0.543263
343 1 0.27866 0.200534 0.026931 1.94861 -3.19633 -1.26166 -0.226909 -0.137482
344 1 0.250505 0.225934 0.0255802 0.23744 -3.27735 0.0068004 -0.277423 -0.214758
419 1 0.224585 0.24888 0.0263405 0.846678 -3.34319 -0.407946 0.402577 -0.445354
1938 1 0.226301 0.224908 0.049742 0.336109 -3.30784 -0.331415 -0.219721 0.381302
2021 1 0.250224 0.249396 0.0493561 0.254088 -3.29263 -0.228401 0.239808 0.118659
1942 1 0.274667 0.224052 0.0493572 0.7485 -3.3096 0.431061 0.503088 0.469063
338 1 0.22608 0.225804 0.999901 0.353206 -3.35024 -0.399001 -0.039265 0.0544665
1941 1 0.250764 0.200021 0.0499442 0.433263 -3.32112 -0.322308 -0.185199 -0.126792
348 1 0.301164 0.22463 0.0268851 0.709894 -3.27954 0.424137 0.533243 -0.331378
427 1 0.326865 0.249347 0.0249128 0.716514 -3.3494 -0.449667 0.114098 0.0611885
1945 1 0.302547 0.201482 0.0499732 0.855879 -3.2454 -0.0721759 -0.326399 0.205804
2025 1 0.300266 0.251239 0.0515529 0.584895 -3.3655 0.0366292 -0.454926 -0.077488
351 1 0.374227 0.199651 0.0263953 1.13041 -3.28434 0.339411 0.167665 -0.382521
352 1 0.351883 0.225737 0.0227041 1.21453 -3.27877 -0.546656 -0.393305 0.587
350 1 0.376008 0.226328 -5.8064e-05 0.467519 -3.2519 0.0456664 -0.260643 -0.430589
356 1 0.400036 0.226152 0.0242008 0.372986 -3.32714 -0.104051 0.00246947 0.205541
435 1 0.425272 0.251527 0.025414 0.471356 -3.33476 -0.712455 -0.19932 -0.226244
433 1 0.398961 0.251833 0.998708 0.64147 -3.32557 0.523125 -0.233568 0.390972
1954 1 0.424736 0.224699 0.0491708 0.525332 -3.30097 -0.0127154 0.604903 0.360965
1957 1 0.449996 0.200309 0.0515206 0.959488 -3.26075 -0.00526419 0.0431056 -0.49723
360 1 0.451111 0.226262 0.0241627 0.658627 -3.28721 -0.227683 -0.134626 0.123399
1958 1 0.475094 0.22483 0.0482832 0.900992 -3.35213 0.170832 0.186139 0.467726
358 1 0.474096 0.226591 -0.00098031 0.792731 -3.27791 0.0518194 -0.195826 0.314692
364 1 0.500853 0.226426 0.0245226 0.744753 -3.2846 -0.271603 -0.319113 0.195884
361 1 0.499683 0.202618 1.00183 1.32309 -3.35299 -0.124195 -0.529726 -0.221505
1965 1 0.549866 0.199455 0.0518891 0.469951 -3.29131 0.0759695 -0.356726 -0.179387
1962 1 0.524003 0.224278 0.0497825 0.708999 -3.25995 -0.025144 0.370789 0.394471
368 1 0.549871 0.223232 0.0282616 1.60146 -3.23553 0.468645 0.594505 -0.830624
367 1 0.575121 0.198516 0.025008 0.886484 -3.31522 -0.23302 0.381496 0.207915
372 1 0.598061 0.224848 0.0273115 0.522955 -3.34882 0.209037 -0.0752263 -0.484861
447 1 0.572711 0.249188 0.0275241 0.650027 -3.31173 0.0370874 -0.0639217 -0.426412
366 1 0.574094 0.225636 1.00014 0.599906 -3.32747 0.561494 -0.275954 0.341067
1969 1 0.600065 0.198775 0.0497199 0.690813 -3.24302 0.282276 0.653623 0.123324
1966 1 0.574045 0.223777 0.051277 0.160593 -3.29468 0.349909 0.19185 0.229158
1970 1 0.624789 0.224794 0.0502213 0.211114 -3.3519 -0.0116067 0.0348149 0.181255
376 1 0.65087 0.224564 0.0259441 0.398011 -3.30887 -0.249539 0.288431 0.177124
451 1 0.624236 0.249458 0.028123 0.452401 -3.35133 0.217274 0.155528 -0.229834
2053 1 0.650563 0.249666 0.0521356 0.432583 -3.26339 -0.396576 0.434687 -0.547702
370 1 0.625239 0.22659 0.002353 0.717794 -3.33978 -0.236707 -0.267774 -0.181391
375 1 0.676129 0.200902 0.0265923 0.582332 -3.24629 -0.253826 -0.0390725 -0.322905
380 1 0.700098 0.224517 0.025192 0.315751 -3.29391 0.0239374 0.275679 0.308465
455 1 0.674834 0.250496 0.0270883 0.511518 -3.30716 -0.376413 0.0250064 -0.416869
1974 1 0.674662 0.226551 0.0517301 0.780201 -3.28977 0.62503 -0.57048 -0.395342