ITEM: TIMESTEP
18750
ITEM: NUMBER OF ATOMS
32000
ITEM: BOX BOUNDS pp pp pp
7.4798826359158657e+00 7.3520117364084186e+01
-3.7625510280253280e+00 8.4762551028025399e+01
-5.6522226181391844e+00 8.6652222618138524e+01
ITEM: ATOMS id type xs ys zs c_csym c_peratom fx fy fz
4 1 0.00571474 0.0327581 0.0303389 6.08792 -3.21944 0.128685 0.587163 0.0320081
8 1 0.0481407 0.02931 0.0267992 0.954666 -3.31223 -0.341627 -0.0255146 0.282663
2 1 0.020622 0.0277542 0.000718803 0.974088 -3.32194 -0.25407 -0.521104 0.202959
6 1 0.0614762 0.0210475 0.999188 0.95551 -3.32641 0.627974 0.116531 -0.513407
3 1 0.0186369 0.0050772 0.0248583 0.70171 -3.28885 0.46849 -0.584202 -0.0960962
12 1 0.0889776 0.022056 0.0243428 1.05018 -3.24339 0.0584852 -0.142664 -0.695885
89 1 0.0874259 0.0462785 0.00216324 1.55671 -3.28758 0.396922 -0.52768 -0.590694
7 1 0.0620174 0.99906 0.0207064 0.502241 -3.30517 -0.0434038 -0.13365 0.28103
16 1 0.131258 0.0174848 0.0197798 0.658537 -3.3469 -0.246736 -0.242653 -0.141517
1614 1 0.158738 0.020146 0.0442221 0.660128 -3.35838 -0.472476 0.294172 -0.328006
95 1 0.156192 0.0419783 0.0205751 0.646099 -3.33791 0.0730661 0.0961884 0.359879
20 1 0.171932 0.0120657 0.0139911 1.22127 -3.27965 0.156166 0.54702 0.30138
93 1 0.130737 0.0390429 0.997665 1.79041 -3.28659 -0.194054 0.668468 -0.244842
99 1 0.197865 0.0393001 0.0172164 0.781989 -3.33472 0.312098 -0.275266 -0.0187958
24 1 0.214069 0.00819061 0.0140753 6.1144 -3.26791 0.0141779 0.043849 -0.680271
1618 1 0.199429 0.0159391 0.0404811 3.15213 -3.23347 -0.39669 0.558082 -0.342818
1701 1 0.22576 0.0426181 0.0401277 4.01193 -3.28021 0.323184 -0.0547019 0.181146
1622 1 0.243605 0.0107022 0.0406402 6.68938 -3.31366 0.176105 -0.269494 -0.94829
103 1 0.240082 0.0316008 0.0148338 6.03221 -3.30842 0.155885 0.130529 -0.105133
28 1 0.274927 0.0109717 0.0167688 1.08033 -3.29383 -0.536851 -0.246699 0.741411
1705 1 0.269187 0.036242 0.0406375 7.52723 -3.28654 -0.662266 -0.570996 -0.293157
1626 1 0.302495 0.0135255 0.0422996 1.59279 -3.30438 -0.181548 -0.801872 -0.616323
1709 1 0.300221 0.034031 0.0174743 0.949741 -3.28776 0.175361 0.264548 0.433027
1630 1 0.334731 0.0116522 0.0210648 1.57906 -3.31244 -0.457871 0.453211 -0.00427784
1713 1 0.360183 0.0412344 0.0238901 1.75053 -3.35036 -0.248937 -0.257375 -0.355247
36 1 0.363552 0.0176692 0.00100375 0.651519 -3.26293 0.26123 -0.247575 0.177123
111 1 0.331173 0.0379986 0.998441 0.735647 -3.31162 0.637526 -0.00236046 -0.0654743
115 1 0.391102 0.0407998 0.00216004 0.66566 -3.30819 0.363067 0.118921 0.0812979
1634 1 0.388365 0.0176414 0.0247294 1.45996 -3.34003 0.630033 0.125022 -0.0212791
40 1 0.424643 0.0191016 0.0059797 1.21662 -3.39225 -0.336152 0.228042 -0.334981
1717 1 0.415989 0.0446825 0.0288545 2.23198 -3.2889 0.751119 -0.901758 -0.474574
1638 1 0.45079 0.0227042 0.0296243 0.522922 -3.29625 0.130213 0.179833 -0.645815
44 1 0.481559 0.023546 0.00829927 1.21456 -3.28854 0.239837 0.394735 0.0177919
119 1 0.449801 0.045189 0.00645399 0.556949 -3.32477 -0.107519 0.112228 0.171094
1721 1 0.479497 0.0484387 0.0286878 0.562351 -3.34221 -0.166279 0.0371154 -0.0333264
1641 1 0.487597 0.00138942 0.030186 6.69141 -3.30081 -0.691415 0.135378 0.0465044
1642 1 0.511405 0.0260575 0.0308325 6.86665 -3.26424 -0.0684207 0.684102 -0.333496
48 1 0.544465 0.0287517 0.0106023 1.3203 -3.35749 -0.642416 0.716893 -0.113644
1645 1 0.542659 0.00664027 0.0338874 6.71191 -3.26071 -0.234127 -0.23199 -0.425841
43 1 0.514786 0.00433125 0.00832265 0.439257 -3.29364 0.174819 0.00773682 0.19037
52 1 0.5971 0.0354475 0.0133842 1.69283 -3.31592 0.72468 -0.199758 0.241145
47 1 0.575157 0.00961887 0.0121868 0.635368 -3.29717 -0.0476376 -0.1558 0.240109
1646 1 0.568842 0.031883 0.0345297 0.36501 -3.29179 0.419773 0.0992449 0.0858225
1649 1 0.601315 0.00950843 0.0368789 0.825061 -3.31671 -0.259325 0.634753 0.547198
1650 1 0.627742 0.0358154 0.0392916 0.323772 -3.36029 -0.260969 0.0886523 0.0664888
51 1 0.630519 0.0136745 0.0169842 0.563555 -3.36634 0.128612 0.236424 -0.0687199
56 1 0.659206 0.0386429 0.0189186 0.309199 -3.31635 -0.311895 0.0353769 0.170962
1653 1 0.658844 0.0158573 0.0409626 0.261521 -3.28045 -0.129693 0.00613352 0.12765
53 1 0.663813 0.0161666 0.996936 0.426003 -3.25528 0.390039 -0.00372101 0.694844
55 1 0.690736 0.017621 0.0229145 0.877994 -3.31628 0.481276 0.28211 -0.666336
54 1 0.690275 0.0420633 0.00113977 0.531783 -3.32691 0.373977 0.116189 -0.155834
60 1 0.720125 0.0449698 0.0245151 0.639539 -3.32079 -0.0255452 -0.530242 0.0886631
57 1 0.723232 0.023024 0.00172534 0.975661 -3.3669 0.0612795 -0.603005 0.545779
59 1 0.752424 0.0245563 0.027016 1.01259 -3.31414 -0.411787 -0.586216 -0.225595
58 1 0.75113 0.0461588 0.00489283 0.398954 -3.31898 0.19869 0.313392 0.0902215
64 1 0.779183 0.0474443 0.0298932 0.268856 -3.36333 0.251101 0.233023 -0.136136
61 1 0.784266 0.0261268 0.00692688 0.161555 -3.3192 0.0908947 0.230905 0.235478
63 1 0.814826 0.0282167 0.030637 1.22482 -3.30418 -0.895654 0.250161 0.786987
1582 1 0.817608 0.00740812 0.00941573 0.911814 -3.27335 -0.497187 -0.771434 -0.111482
65 1 0.842435 0.0316996 0.0109664 1.16677 -3.21407 0.781422 0.157594 0.116562
67 1 0.872584 0.0318846 0.0375636 7.73593 -3.33586 -0.0561483 -0.17132 -0.126136
1588 1 0.844052 0.00642655 0.0335198 6.17865 -3.19896 0.20204 0.561991 0.711743
1586 1 0.874707 0.0102824 0.0158057 6.78142 -3.25505 0.344903 0.0624282 0.0967066
69 1 0.904568 0.0366157 0.0180399 7.49505 -3.31838 0.082785 -0.0914247 -0.0750885
1590 1 0.918392 0.00496138 0.0274021 6.92685 -3.13699 0.0746931 -0.246727 -0.549903
30471 1 0.936607 0.0402077 0.998208 7.02161 -3.30003 -0.0278207 -0.179871 0.271159
73 1 0.943204 0.0289928 0.0270584 3.53467 -3.24718 0.693049 0.428627 -0.25291
78 1 0.976326 0.0316772 0.00300204 6.00554 -3.24022 0.234544 0.181893 0.396797
79 1 0.978485 0.0120705 0.026703 3.39141 -3.23001 -0.61504 -0.528379 0.455917
77 1 0.949505 0.00882161 0.00210045 4.60691 -3.2732 -0.134933 -0.112781 0.12415
1 1 0.992199 0.00102375 0.000501679 0.629304 -3.31692 -0.0306306 0.0925347 0.114709
85 1 0.0479776 0.0503004 0.00399121 0.393836 -3.28128 -0.397267 0.289877 0.197704
83 1 0.0284132 0.0576361 0.0341054 4.34176 -3.31839 0.264467 0.011266 -0.133818
81 1 0.00511397 0.0566485 0.00592291 6.03165 -3.31163 -0.0359438 0.0179673 0.00155134
82 1 0.0320562 0.0795821 0.0109014 10.3864 -3.34245 0.394895 0.13198 0.198367
88 1 0.0578558 0.0835995 0.0365484 5.55495 -3.30464 0.179749 -0.168602 -0.207395
91 1 0.111288 0.046861 0.0260994 2.16377 -3.24237 1.08129 -0.0336008 0.0423345
87 1 0.0729615 0.0554426 0.0290274 1.71897 -3.26018 -0.540988 -0.28438 0.0861672
92 1 0.101907 0.0780853 0.0323769 0.68618 -3.25835 -0.229328 0.0534771 0.0284615
86 1 0.0766079 0.076268 0.00667599 1.16994 -3.27384 -0.631431 -0.0934762 0.188846
90 1 0.116449 0.0687262 0.00533081 0.990734 -3.31404 0.234443 0.306753 -0.421638
96 1 0.141243 0.0705642 0.0296771 1.33218 -3.29146 0.228713 0.1875 -0.256033
100 1 0.180796 0.0676518 0.0228758 2.09743 -3.25438 0.55795 -0.0972923 -0.19963
94 1 0.157804 0.064632 0.997827 1.0065 -3.22207 0.335277 0.301561 0.779975
177 1 0.184978 0.0895652 0.00101811 5.75022 -3.33259 -0.255611 0.461863 -0.233861
104 1 0.225342 0.0648759 0.0192989 0.859895 -3.31989 0.26702 -0.128399 -0.391506
179 1 0.21254 0.0943244 0.0231294 0.936766 -3.30227 0.169768 0.236768 0.382256
183 1 0.253285 0.091045 0.0185579 1.03151 -3.26999 -0.0416303 -0.518248 0.371429
1706 1 0.267444 0.0558694 0.0156817 6.88709 -3.33657 -0.0381583 0.277591 0.282162
1712 1 0.295821 0.0570856 0.0404823 2.35926 -3.29053 -0.0356412 0.711904 0.104874
1789 1 0.293088 0.0814935 0.015663 6.4588 -3.31554 0.345405 0.14578 0.355528
1710 1 0.325893 0.0595154 0.0201464 0.540007 -3.31129 0.283523 0.0524458 0.100081
1793 1 0.352487 0.0838273 0.0217607 1.5316 -3.27451 0.283904 0.253842 -0.206591
116 1 0.362241 0.0641449 0.000366419 1.85184 -3.30267 -0.716274 -0.677028 -0.504941
1791 1 0.322541 0.0827972 0.0422784 2.68929 -3.333 -0.423094 0.242556 -0.0516428
1716 1 0.352902 0.0619916 0.0470245 1.50643 -3.23607 0.276987 -0.403511 -0.787709
191 1 0.326359 0.0814992 0.996645 1.3706 -3.289 0.382722 0.682887 0.0800652
195 1 0.387606 0.0869045 0.998455 1.73257 -3.2526 0.329405 0.627086 1.13042
1714 1 0.388863 0.0644235 0.0226019 2.29798 -3.21969 -0.776487 0.53754 0.371227
120 1 0.418633 0.0655694 0.00240928 0.911309 -3.27437 -0.0700058 0.276722 0.417956
1797 1 0.411277 0.0897592 0.0276652 1.84696 -3.27779 0.281837 0.0488947 -0.915051
1795 1 0.377814 0.0876392 0.04446 1.95395 -3.26428 0.0488055 -0.306084 0.466324
1718 1 0.445388 0.0681975 0.029655 1.23671 -3.36339 -0.192744 0.190872 -0.461188
199 1 0.442906 0.0929257 0.00506207 0.73783 -3.3546 0.217014 0.00957948 0.254883
124 1 0.475948 0.0726287 0.00624321 0.705333 -3.3483 0.124665 -0.112083 0.367965
1801 1 0.47022 0.0966819 0.0288601 0.662008 -3.36475 0.259333 -0.397816 0.119007
123 1 0.510279 0.0521442 0.00875913 0.336826 -3.37868 -0.0815702 -0.405293 0.00575066
1725 1 0.538925 0.0543934 0.0325986 0.561734 -3.33287 -0.394033 -0.151618 -0.481586
1722 1 0.506877 0.0757472 0.0313349 0.944649 -3.31703 -0.761801 -0.0509499 -0.122346
128 1 0.534569 0.0777722 0.0092645 1.18628 -3.24466 0.797594 -0.357121 0.461184
1726 1 0.564201 0.0792946 0.0358134 1.06509 -3.23357 -0.68984 0.34614 -0.559226
127 1 0.569024 0.0575433 0.0114114 0.870603 -3.27198 -0.638014 -0.191765 0.475324
132 1 0.593086 0.0835318 0.0163947 1.98417 -3.27492 0.995508 -0.425158 -0.174021
1729 1 0.597348 0.0570157 0.0347547 1.88818 -3.29722 -0.351178 0.0475495 0.417752
1730 1 0.622409 0.0828253 0.039975 0.684448 -3.29094 0.127354 0.54158 -0.555254
131 1 0.627368 0.0600283 0.0155027 1.00302 -3.28399 -0.169198 0.088494 0.488006
136 1 0.655947 0.0861966 0.0214557 0.593001 -3.36909 -0.138796 0.23931 -0.307539
135 1 0.689441 0.0651761 0.0234407 1.33071 -3.25008 -0.442861 0.153345 -0.3568
1733 1 0.653627 0.061733 0.0401731 0.864105 -3.29684 0.0665739 -0.094818 0.259451
1734 1 0.682491 0.0856545 0.0445389 1.04525 -3.32593 0.380324 0.490707 0.340732
134 1 0.685571 0.0876397 0.999291 2.38748 -3.25591 0.195218 0.901177 1.07196
140 1 0.715348 0.0909142 0.0260187 0.490245 -3.33561 -0.101067 -0.318623 -0.101898
137 1 0.718954 0.0676196 0.00335462 0.32459 -3.29346 0.117846 -0.0657144 0.0152979
139 1 0.747506 0.0690663 0.0281463 0.250087 -3.34087 0.162344 -0.0319767 0.0152184
138 1 0.747294 0.0913582 0.00711594 1.16843 -3.31052 0.229673 0.414531 -0.198748
62 1 0.811745 0.0518902 0.00831596 0.470861 -3.30193 -0.374443 -0.182434 0.288614
144 1 0.774745 0.0960334 0.0311287 0.711625 -3.31882 0.0604284 -0.388075 -0.122832
141 1 0.779917 0.0710632 0.00800653 0.614121 -3.32026 -0.00268137 0.469957 0.127156
143 1 0.804787 0.0733488 0.0326408 0.767489 -3.34564 0.511607 0.0249285 -0.237566
142 1 0.806093 0.0996065 0.0110612 1.5951 -3.2946 0.431345 -0.69899 -0.251133
68 1 0.83996 0.0536322 0.033427 0.481787 -3.35256 -0.236324 0.0337905 0.154209
66 1 0.872828 0.0574013 0.0155823 0.75256 -3.30043 -0.240955 -0.00667728 0.0645789
145 1 0.835274 0.0764631 0.010926 3.0265 -3.32551 0.451266 0.239739 0.431334
148 1 0.83482 0.0986598 0.035333 0.463256 -3.32108 -0.287463 0.0849721 -0.521095
147 1 0.867018 0.0786145 0.0379315 0.499238 -3.31118 0.157163 -0.00576138 -0.477307
72 1 0.89787 0.0562999 0.0405326 6.65167 -3.30182 0.686791 0.190922 -0.299674
70 1 0.934798 0.0612651 0.0203657 6.78573 -3.30701 -0.187828 -0.510214 0.0388546
149 1 0.901213 0.0808229 0.0171811 0.990993 -3.30561 -0.327869 0.207365 0.547118
151 1 0.927099 0.0808175 0.0408931 7.3701 -3.31141 -0.059163 0.579611 0.244076
74 1 0.975679 0.0535032 0.0269968 4.86136 -3.27311 -0.288892 -0.169479 0.503504
153 1 0.960375 0.0882993 0.020983 5.82263 -3.27456 -0.107659 -0.263156 0.347181
157 1 0.999286 0.0797391 0.0311785 5.09626 -3.25849 0.0064621 -0.240925 -0.387505
30555 1 0.996595 0.0915581 0.000751858 6.56556 -3.21567 -0.964489 -0.733588 0.666273
158 1 0.0275028 0.103981 0.0332716 5.6069 -3.24809 -0.249721 -0.0973654 -0.0958057
30560 1 0.0195234 0.114669 0.00459079 8.04516 -3.21487 0.395776 0.715327 0.318656
161 1 0.05474 0.128824 0.0352725 6.30431 -3.19474 -0.350796 -0.730469 0.04825
30639 1 0.0462957 0.143935 0.00622078 7.73139 -3.19929 0.197131 -0.472549 0.474889
237 1 0.0171266 0.13554 0.026071 6.61311 -3.33355 -0.543636 0.288018 0.424102
165 1 0.0582584 0.10516 0.0133913 7.46818 -3.32623 0.258371 0.0498002 -0.147377
167 1 0.0880271 0.105931 0.0394356 5.90615 -3.33833 -0.352392 0.305047 -0.0653171
166 1 0.0859235 0.129138 0.0163358 7.59111 -3.36272 0.1239 -0.0335334 -0.12588
169 1 0.101588 0.10049 0.0105081 0.779148 -3.34613 0.282145 -0.116173 0.0866232
172 1 0.115151 0.131545 0.0433132 5.5181 -3.30045 -0.120551 0.139546 -0.372105
176 1 0.131729 0.123621 0.0155258 0.90193 -3.25676 -0.573164 0.335857 -0.146077
173 1 0.144815 0.0935248 0.00894619 1.46489 -3.35976 -0.168795 -0.134482 -0.446386
171 1 0.1306 0.102533 0.0361494 0.601659 -3.30203 -0.167373 -0.32546 0.112099
175 1 0.173615 0.0957078 0.0315266 1.75446 -3.24188 -0.311257 0.518039 0.0814313
180 1 0.171271 0.118792 0.0132566 6.89448 -3.23413 0.767111 -0.0705462 -0.403415
1774 1 0.156098 0.126992 0.0389167 0.585225 -3.19105 0.144067 0.400337 0.131216
184 1 0.211064 0.116498 0.999735 5.74347 -3.38325 -0.290067 0.104036 -0.198425
1778 1 0.201754 0.123599 0.0339548 2.5058 -3.24333 -0.786799 -0.666847 -0.175996
1782 1 0.239939 0.122104 0.02346 2.38528 -3.2772 -0.584898 -0.553398 0.018015
263 1 0.237397 0.142295 0.998225 7.26587 -3.326 0.162532 0.114095 0.468459
1786 1 0.279541 0.11503 0.0202832 0.477266 -3.22267 0.553043 0.0821719 0.288054
1869 1 0.306185 0.140419 0.0226647 0.557958 -3.30661 -0.131814 0.294137 0.0420502
1790 1 0.321385 0.106135 0.0179235 6.63752 -3.34953 -0.432205 0.0383001 0.154208
1873 1 0.346196 0.132397 0.0204723 6.52615 -3.31731 0.285751 0.134013 -0.388819
196 1 0.352877 0.108154 0.999525 1.45492 -3.30825 0.290081 -0.104646 -0.180584
1794 1 0.382106 0.113115 0.0214194 2.23772 -3.32888 0.00200715 -0.354605 -0.0666485
275 1 0.379371 0.133332 0.996165 2.23394 -3.28196 -0.175245 0.634464 0.840239
200 1 0.413394 0.114832 0.000890813 0.699671 -3.28022 0.0511924 -0.0010478 0.272431
1877 1 0.408967 0.137939 0.0215112 1.69018 -3.2715 -0.655406 0.394511 0.185111
1798 1 0.436287 0.11655 0.0269399 0.939334 -3.30653 0.296202 -0.366519 -0.0613309
279 1 0.439819 0.141563 0.00344565 0.691246 -3.26147 -0.0632193 -0.338816 -0.156981
204 1 0.47142 0.119361 0.00717214 0.323709 -3.34148 -0.122077 -0.0352141 -0.0667142
1881 1 0.465296 0.143213 0.0280834 0.459533 -3.3437 0.258109 -0.230506 -0.113612
1802 1 0.499842 0.121572 0.0287835 1.4255 -3.34762 -0.269217 0.0784738 0.385504
203 1 0.505513 0.0979788 0.00891275 0.702227 -3.26769 -0.433058 0.415001 0.188932
1805 1 0.530906 0.101082 0.0337989 0.539145 -3.36625 0.093133 0.088494 -0.196384
208 1 0.532783 0.124861 0.00973649 0.751532 -3.23026 -0.070636 -0.376905 0.949264
1806 1 0.558756 0.126517 0.0349568 0.291291 -3.33168 -0.235141 -0.0616146 0.0517637
207 1 0.56253 0.101832 0.0128298 0.883829 -3.33856 -0.261184 0.511147 0.11258
1809 1 0.591904 0.10727 0.0368369 1.31409 -3.32704 -0.097479 -0.604651 0.579728
211 1 0.623572 0.107395 0.0175819 0.506733 -3.31809 0.229409 0.0191452 0.505406
212 1 0.591282 0.128528 0.0163994 0.257933 -3.28439 0.108422 0.278298 -0.343099
1810 1 0.621944 0.131027 0.0391363 1.29121 -3.35192 -0.498309 0.249776 0.423974
215 1 0.684437 0.111856 0.023002 0.421393 -3.35836 -0.361591 -0.302324 0.00604828
1813 1 0.652176 0.109776 0.042833 0.394223 -3.32127 0.0136829 -0.20312 -0.42805
216 1 0.652412 0.135095 0.0206569 0.98973 -3.28425 -0.106835 -0.511939 -0.0963606
1814 1 0.677831 0.134596 0.046788 0.956171 -3.27197 0.328754 -0.470027 -0.402592
214 1 0.686503 0.135303 0.00213738 1.57752 -3.32744 -0.330587 -0.0894666 -0.498283
220 1 0.710118 0.135829 0.0265374 0.909898 -3.258 0.469364 0.513392 -0.134589
217 1 0.719138 0.114435 0.00504304 3.09989 -3.28872 -0.554721 -0.223227 -0.794033
219 1 0.742499 0.116622 0.0283009 0.773165 -3.17388 0.422768 -0.469173 -0.1904
218 1 0.7416 0.140895 0.00261716 2.81805 -3.35846 0.452222 -0.404777 0.253938
224 1 0.76807 0.139903 0.028703 1.62596 -3.29824 0.598677 0.310649 -0.210452
221 1 0.774039 0.116374 0.00781655 1.42445 -3.32375 -0.344413 0.746927 -0.28774
223 1 0.802004 0.120829 0.0323621 0.575026 -3.33083 0.424107 0.0498812 0.0756662
222 1 0.803828 0.142546 0.00920933 0.495499 -3.33649 -0.36561 -0.0928148 0.244752
146 1 0.869197 0.102369 0.0167453 1.39571 -3.35611 -0.101419 -0.187642 -0.20178
225 1 0.836437 0.123171 0.0129302 0.48939 -3.30764 -0.242699 -0.0111914 0.0420379
227 1 0.860188 0.125739 0.0371829 0.776286 -3.31212 0.135808 -0.117521 0.200122
226 1 0.861931 0.150065 0.0152012 0.810365 -3.31284 0.0385156 -0.175624 -0.119427
152 1 0.893224 0.106756 0.0418549 3.22961 -3.27217 0.567212 -0.836559 -0.618111
150 1 0.924649 0.107691 0.0199702 1.07408 -3.35992 0.281688 -0.088723 0.252635
229 1 0.893048 0.12781 0.0180038 0.525876 -3.30714 0.0443305 -0.117133 -0.236056
231 1 0.92198 0.130331 0.0418279 0.415751 -3.30012 0.19669 -0.549089 -0.0952781
156 1 0.95437 0.10822 0.0434813 7.21604 -3.33998 -0.197916 0.00849079 0.113688
154 1 0.986609 0.111193 0.0241209 7.33615 -3.30641 0.261077 0.156659 -0.128283
233 1 0.95546 0.133691 0.0216282 0.783916 -3.31836 -0.555693 -0.475536 -0.0967362
30556 1 0.959043 0.10937 0.998514 0.964178 -3.3075 0.272365 0.645734 0.382206
30635 1 0.986992 0.135974 0.00386645 0.670253 -3.29603 -0.0880923 -0.150905 -0.488203
238 1 0.0434057 0.161852 0.0305499 5.17655 -3.31477 -0.258257 0.00769593 0.0744119
30640 1 0.0128632 0.161924 0.00667693 1.51401 -3.29572 0.17966 -0.00625129 -0.52255
30719 1 0.0426759 0.185132 0.00738794 0.535763 -3.30182 -0.0256519 -0.11413 -0.365058
241 1 0.0690923 0.18805 0.0330253 6.55492 -3.29963 -0.708504 -0.430098 0.144815
162 1 0.0808902 0.149529 0.0398469 5.39151 -3.12199 0.524846 0.294207 0.137539
30564 1 0.0760966 0.163442 0.0135886 7.92536 -3.26293 -0.0334503 0.565357 -0.664904
245 1 0.099432 0.19083 0.0137976 2.59997 -3.23112 -0.00772052 -0.119357 -0.299481
247 1 0.103447 0.174533 0.0417069 5.42067 -3.07826 -0.635866 0.251535 -0.360006
249 1 0.111978 0.152715 0.020023 8.03766 -3.25906 0.686128 -0.215549 -0.194701
251 1 0.13622 0.16007 0.043076 3.38589 -3.265 1.09438 -0.617282 0.443442
256 1 0.16522 0.184888 0.0432327 2.88659 -3.33025 -0.2428 0.138136 0.381554
250 1 0.136875 0.178992 0.0184836 5.18849 -3.28289 0.300438 0.0647654 0.234368
255 1 0.15733 0.148794 0.018526 1.16533 -3.23827 -0.0763892 0.416102 0.0328683
260 1 0.185471 0.175989 0.0204499 6.46151 -3.12665 -0.0348271 -0.521109 -0.725529
1857 1 0.18202 0.153451 0.0399269 0.663954 -3.22099 -0.215281 0.515094 0.295399
259 1 0.199551 0.144035 0.0132565 5.42435 -3.23186 0.184064 0.349811 -0.293598
264 1 0.228365 0.169579 0.0137374 7.82803 -3.1017 0.376468 0.12552 0.594359
1861 1 0.222079 0.150725 0.0358399 6.31518 -3.12566 0.124451 0.256809 0.109296
1858 1 0.209341 0.18045 0.0414003 1.32992 -3.19451 -0.158742 -0.289929 0.311787
1865 1 0.260598 0.146312 0.0278491 3.58007 -3.30848 0.83219 0.316552 -0.202198
268 1 0.266059 0.165447 0.000906893 3.23582 -3.25369 -0.277433 0.242887 0.372129
1866 1 0.288998 0.1711 0.0267181 1.79715 -3.36454 0.239582 -0.375036 0.207615
1862 1 0.249451 0.174511 0.0372465 2.48405 -3.20932 0.354375 0.177947 -0.232507
272 1 0.305788 0.161872 0.998444 0.549193 -3.26854 0.630837 -0.133927 0.106356
1870 1 0.334403 0.165909 0.0235584 1.12174 -3.33167 -0.257737 -0.27563 -0.114356
351 1 0.335754 0.188816 0.000533549 1.77441 -3.27266 -0.393942 -0.488822 -0.0467501
355 1 0.374549 0.182382 0.995295 7.77718 -3.25031 -0.440833 0.390979 -0.0430797
1874 1 0.374977 0.1577 0.0208736 6.47474 -3.3296 -0.142644 0.0374229 -0.416325
280 1 0.403173 0.162646 0.997873 2.53208 -3.25706 0.671208 -0.675855 0.404393
1957 1 0.39902 0.184788 0.0187526 7.631 -3.30308 0.485624 0.109992 0.777732
359 1 0.433498 0.186609 0.00152712 0.485928 -3.33071 0.162616 0.0908848 -0.342782
1878 1 0.435465 0.164322 0.0234267 1.12015 -3.28139 -0.704394 -0.0966805 0.190298
283 1 0.499625 0.146202 0.00876271 0.703153 -3.29887 -0.213774 0.0205901 -0.038432
284 1 0.466888 0.165805 0.00333241 0.570491 -3.32838 0.178267 0.187865 0.188272
1961 1 0.460384 0.188589 0.0253881 0.424591 -3.28802 0.101261 0.332875 0.222282
1882 1 0.492781 0.169377 0.0290074 0.483591 -3.35535 -0.0341218 -0.0372542 0.188282
363 1 0.492438 0.19191 0.00572975 0.592985 -3.30639 0.516303 -0.0642056 0.208495
1885 1 0.52419 0.14868 0.0336251 1.0107 -3.3275 0.430597 -0.058618 -0.160294
287 1 0.557791 0.148873 0.0131932 0.565373 -3.30742 0.257747 0.466374 0.108965
288 1 0.527347 0.169295 0.00999232 0.910708 -3.35034 -0.189147 0.501847 -0.141038
1886 1 0.552036 0.174395 0.0348227 0.795028 -3.33949 0.323387 -0.604464 -0.0845726
1889 1 0.585556 0.151541 0.0368182 0.340232 -3.32419 -0.0516973 0.0969831 -0.0158533
291 1 0.619809 0.155189 0.0181378 0.490234 -3.35881 0.0450665 -0.111338 0.0761206
292 1 0.585698 0.17486 0.0136877 0.413846 -3.37328 -0.202686 0.266206 0.384701
1890 1 0.612508 0.176073 0.0400502 0.593496 -3.33949 -0.05863 0.20767 -0.188564
1893 1 0.65035 0.157285 0.0445134 2.95288 -3.22845 -1.60633 -0.139979 -0.415338
295 1 0.679423 0.156424 0.0248373 1.55507 -3.24999 0.155951 0.850777 -0.828584
296 1 0.646787 0.180125 0.0221727 0.713369 -3.34598 -0.180751 -0.491758 -0.467423
294 1 0.676255 0.183652 0.000241929 1.78133 -3.29979 0.112424 -0.607942 0.289989
1894 1 0.673478 0.182498 0.0459973 0.856231 -3.25676 -0.231652 0.0491792 -0.344604
299 1 0.741348 0.162445 0.0260977 2.0338 -3.33626 -0.794318 -0.119853 0.22386
300 1 0.706142 0.181853 0.0244935 0.755667 -3.33594 -0.161456 -0.0412967 -0.0741919
298 1 0.73792 0.185226 0.00368354 0.606775 -3.32704 0.110905 0.0136163 0.256384
297 1 0.710349 0.160098 0.00243414 0.636282 -3.3185 -0.263077 0.294292 0.0905346
1897 1 0.704505 0.159577 0.047172 0.437413 -3.28019 0.59072 -0.0970053 -0.075137
304 1 0.766102 0.186654 0.0284228 0.479369 -3.32665 -0.29305 0.153115 0.526572
303 1 0.797193 0.164779 0.0329162 0.711421 -3.30973 -0.00524726 0.272188 -0.165655
302 1 0.796954 0.190354 0.00954481 0.574773 -3.23428 0.616464 -0.42043 0.211902
301 1 0.774887 0.164478 0.00760772 2.28172 -3.28007 -0.665108 -0.31873 -0.197645
228 1 0.829853 0.145416 0.0336457 0.652822 -3.30558 -0.170651 0.00532475 0.368218
308 1 0.822135 0.192589 0.0350697 0.889163 -3.31814 0.490842 -0.76439 -0.337291
305 1 0.828579 0.16957 0.0130349 0.46612 -3.36982 -0.00211753 -0.123627 -0.127929
307 1 0.855731 0.17104 0.0373574 0.412396 -3.37476 0.169905 0.0382742 -0.0388393
306 1 0.856839 0.194004 0.0149849 0.363966 -3.31809 0.0232077 -0.140739 0.125385
232 1 0.891098 0.149962 0.0386997 0.527684 -3.28291 -0.722764 0.0734864 0.598731
230 1 0.920953 0.152522 0.0199852 0.44875 -3.27669 0.78436 -0.111808 -0.440575
309 1 0.89188 0.172638 0.0193457 1.99789 -3.27472 -0.642458 0.406043 -0.543181
311 1 0.920394 0.175172 0.0424165 1.84145 -3.2672 -0.132846 -0.196444 -0.227888
317 1 0.0125278 0.183956 0.0263753 2.06018 -3.23598 -0.846801 -0.403114 0.342011
236 1 0.951305 0.154356 0.0439123 0.458699 -3.2589 -0.150985 0.0427741 -0.0629716
234 1 0.980022 0.158684 0.0237955 1.48637 -3.25444 0.498367 -0.0273257 -0.0511691
313 1 0.947459 0.17809 0.0206321 1.00203 -3.33464 0.193746 0.152957 0.288755
30636 1 0.953757 0.156395 0.99848 0.48831 -3.31329 -0.309404 -0.188927 0.443372
242 1 0.0662194 0.210449 0.00934343 0.457524 -3.25067 0.474992 -0.183563 -0.511338
318 1 0.035845 0.207464 0.0296761 0.538629 -3.25176 0.106276 0.102334 0.111863
323 1 0.0620747 0.230702 0.0300586 1.2203 -3.2103 -0.0504531 0.549369 0.585005
321 1 0.0348248 0.229494 0.00630519 0.657325 -3.32466 -0.175789 0.17718 -0.300704
248 1 0.094196 0.212107 0.0351055 5.44618 -3.19213 -0.0520796 0.205605 -0.341783
246 1 0.126187 0.213147 0.0130614 7.00697 -3.35688 0.390741 0.337979 0.067509
325 1 0.0935996 0.234151 0.0114763 0.408767 -3.3209 0.271013 0.0624453 -0.196094
327 1 0.121231 0.23675 0.0342535 5.39529 -3.29978 0.140459 -0.285036 0.211256
252 1 0.127321 0.197693 0.0413546 6.25732 -3.15274 0.960014 0.172218 -0.146584
329 1 0.153965 0.238393 0.0154287 6.05651 -3.25489 -0.0297574 0.167806 -0.253331
331 1 0.156822 0.21873 0.0366346 8.7416 -3.15162 -0.666957 -0.355795 0.11897
333 1 0.168215 0.203014 0.0124266 6.55923 -3.27026 -0.351761 0.0387374 -0.197245
335 1 0.192637 0.209346 0.0427154 1.67518 -3.22193 0.566726 -0.171705 -0.0964029
339 1 0.208787 0.199435 0.0123601 2.69539 -3.34016 0.586514 0.172509 -0.189653
344 1 0.236815 0.225522 0.0150858 0.924069 -3.29129 -0.598296 -0.360467 0.0503717
334 1 0.194033 0.228623 0.0194092 7.21408 -3.27098 -0.0277382 -0.0770656 -0.493912
343 1 0.251354 0.194711 0.010147 1.30044 -3.34671 -0.0873526 0.209379 -0.278497
1941 1 0.235003 0.203195 0.0404357 0.977816 -3.28238 0.207605 0.759597 -0.442432
347 1 0.292827 0.190096 0.00331238 1.04707 -3.3043 -0.126619 0.615661 0.0919737
348 1 0.276331 0.221695 0.0112891 0.621995 -3.24949 0.257143 -0.0952375 -0.257001
1945 1 0.275837 0.200897 0.0328343 1.58331 -3.31014 0.340135 -0.372466 0.400288
1946 1 0.303914 0.225314 0.0353509 0.44983 -3.34812 0.1752 -0.158464 0.00214983
1942 1 0.263004 0.229123 0.040869 1.27076 -3.29004 -0.3299 0.220399 -0.513051
1953 1 0.359847 0.190952 0.0253218 0.783306 -3.27457 0.334628 0.0895559 -0.0803294
1949 1 0.318545 0.193753 0.0288797 0.525255 -3.3245 -0.2085 0.392164 0.143422
352 1 0.316585 0.215773 0.00618102 1.36675 -3.32463 0.570166 0.42428 0.0400654
1950 1 0.347042 0.219465 0.0311741 1.02415 -3.31965 -0.440831 0.446709 -0.353752
356 1 0.361073 0.214613 0.99997 1.17362 -3.3377 -0.241795 0.010054 0.393937
1954 1 0.389534 0.217214 0.0260093 1.55042 -3.26707 -0.682591 -0.321052 0.102086
360 1 0.402449 0.208571 0.996597 8.07892 -3.28262 -0.364869 -0.487131 0.336313
439 1 0.428477 0.23077 0.00108671 7.63719 -3.22298 0.310968 0.871814 0.358539
1958 1 0.427374 0.209741 0.0239448 6.82995 -3.30934 0.551033 -0.151438 0.109181
435 1 0.387532 0.238461 0.00348779 0.58598 -3.29383 -0.149158 0.380547 0.113692
364 1 0.462505 0.21285 0.00375209 0.731557 -3.33767 -0.174673 -0.136482 -0.0607847
2041 1 0.454149 0.236699 0.0252105 8.96516 -3.36822 -0.0988549 0.056869 0.330897
1962 1 0.488327 0.213903 0.0295623 1.27148 -3.34724 -0.257484 0.217802 0.0297675
443 1 0.486074 0.239038 0.00656635 0.86366 -3.23447 -0.251686 0.029688 -0.284054
1965 1 0.521741 0.194631 0.0314737 1.45934 -3.29169 -0.691321 -0.12775 -0.163922
367 1 0.550891 0.196437 0.00942268 1.54087 -3.28259 0.503003 0.0198534 0.627227
368 1 0.516131 0.218731 0.00643917 2.62814 -3.31706 0.374044 -0.626362 0.405946
1966 1 0.54638 0.218357 0.0334754 0.697143 -3.30843 -0.373125 0.403019 0.0155153
1969 1 0.57852 0.198542 0.0345588 1.29147 -3.27811 -0.020666 -0.656783 0.51805
371 1 0.612912 0.200814 0.018662 0.792918 -3.30765 -0.0776338 -0.408793 -0.6151
372 1 0.579539 0.2208 0.0147666 0.350724 -3.33015 -0.103037 0.0424337 -0.617971
1970 1 0.605439 0.221785 0.0396395 0.522568 -3.25546 0.478249 0.343131 -0.359541
1973 1 0.637158 0.201659 0.0426553 0.670347 -3.30071 0.592523 0.223153 0.0239633
375 1 0.672083 0.203819 0.0236514 0.528263 -3.33476 -0.00274606 0.376962 -0.234029
376 1 0.638295 0.225647 0.0188424 0.579347 -3.30647 0.26665 -0.269468 0.510241
374 1 0.669505 0.226189 0.998041 1.53318 -3.27009 0.954255 -0.061519 0.429774
1974 1 0.664772 0.22617 0.0445476 0.530593 -3.37358 0.339845 0.0944723 -0.140717
379 1 0.732521 0.208463 0.0259516 0.486748 -3.32012 0.228373 -0.0930692 0.341236
380 1 0.699202 0.229546 0.0245478 0.350501 -3.34641 0.12596 -0.241026 -0.248283
378 1 0.733826 0.231137 0.00330164 0.789411 -3.35148 -0.507915 -0.0939611 0.426949
377 1 0.705341 0.205614 0.00461398 1.73278 -3.31489 -0.199892 0.434485 -0.67234
384 1 0.759969 0.231752 0.0297257 0.860509 -3.3478 -0.162856 0.43245 -0.194852
381 1 0.767091 0.209263 0.00666872 0.786546 -3.24056 -1.00111 0.40073 0.0450066
383 1 0.791718 0.212461 0.0321569 0.344933 -3.25322 -0.234324 0.0742198 -0.17567
382 1 0.790309 0.23485 0.00775291 0.609882 -3.34617 0.271625 0.39555 0.283721
388 1 0.816088 0.237753 0.0330886 0.840179 -3.35464 0.174318 0.0766062 -0.291485
385 1 0.82496 0.21458 0.0123063 0.674071 -3.31094 -0.371365 0.324094 -0.086828
387 1 0.851479 0.216128 0.0352984 0.530393 -3.30319 -0.188594 0.266108 0.416506
392 1 0.8769 0.242508 0.0379604 0.362123 -3.32523 -0.0810014 -0.39219 0.338346
386 1 0.850939 0.241734 0.0135524 1.04057 -3.32109 -0.562639 -0.351065 0.103289
312 1 0.883551 0.194958 0.039289 0.330503 -3.28274 -0.329146 0.210797 -0.334829
310 1 0.914965 0.198048 0.0201769 0.795632 -3.33671 0.447322 0.412132 -0.206027
389 1 0.881785 0.220175 0.0162195 0.544038 -3.32354 0.526513 -0.00141393 0.144888
391 1 0.910679 0.22072 0.0409925 0.276228 -3.34906 -0.0779221 -0.0494858 -0.0515407
316 1 0.945531 0.201068 0.0449591 1.31597 -3.36354 0.0571384 -0.249827 -0.35651
30720 1 0.00638282 0.20654 0.00387949 0.775414 -3.31517 0.620909 -0.10808 -0.350671
393 1 0.942851 0.224595 0.0219237 0.355951 -3.34821 0.0222739 -0.424166 -0.315088
314 1 0.977442 0.204629 0.0233696 0.682209 -3.31182 -0.689757 -0.340795 0.487535
397 1 0.00372242 0.228302 0.0268013 0.35268 -3.31575 -0.0666442 0.0903862 -0.1075
30795 1 0.973267 0.227243 0.00117372 1.17489 -3.30738 0.643137 0.0597304 0.150395
324 1 0.02965 0.252571 0.0277146 0.395697 -3.26171 -0.00797601 -0.00152417 0.678357
322 1 0.0599176 0.254546 0.00934428 0.784414 -3.30201 0.326954 0.190001 -0.504282
403 1 0.0566161 0.277048 0.0292052 0.255618 -3.33491 0.208591 0.027995 -0.133578
401 1 0.0275472 0.276301 0.00554172 0.484142 -3.29416 0.724205 0.490306 -0.198852
328 1 0.0884696 0.254898 0.0346803 1.67892 -3.32215 0.169959 0.378907 -0.268708
326 1 0.121475 0.259374 0.0116256 0.703561 -3.25045 -0.0636843 -0.535888 0.26883
405 1 0.0904862 0.277706 0.0100245 1.21859 -3.30936 -0.429411 0.771011 0.0520142
407 1 0.115527 0.281562 0.0343134 0.687601 -3.32442 -0.0542824 0.0502597 0.0995155
336 1 0.18036 0.241399 0.0443967 7.75485 -3.18968 -0.232166 0.306315 0.0820365
332 1 0.147783 0.261111 0.035901 6.18214 -3.29249 0.287329 -0.0320585 0.477593