ITEM: TIMESTEP
1000
ITEM: NUMBER OF ATOMS
32000
ITEM: BOX BOUNDS pp pp pp
2.6625699637748035e-01 8.0733743003622564e+01
-2.9414983253721516e-01 8.1294149832537173e+01
-2.8486297683851092e-01 8.1284862976838355e+01
ITEM: ATOMS id type xs ys zs c_csym c_peratom fx fy fz
3 1 0.0257723 1.00192 0.0257395 0.593577 -3.28798 -0.475875 -0.41513 -0.186938
4 1 0.00180531 0.0267208 0.0255607 0.807595 -3.34991 -0.347942 -0.229542 -0.203794
8 1 0.0501492 0.0258611 0.0248313 0.12674 -3.3019 -0.0596093 0.270253 -0.000171761
83 1 0.0246599 0.0523633 0.0248317 0.565067 -3.30447 0.0990732 -0.403169 -0.135725
1602 1 0.0257286 0.0248046 0.0503068 0.534364 -3.368 -0.259628 0.164292 0.116993
1685 1 0.0503584 0.0494522 0.0498741 0.454812 -3.33657 -0.0973525 0.403747 -0.0208139
7 1 0.0747367 0.000252157 0.0246367 0.45493 -3.35122 0.277758 -0.00535406 -0.0350958
12 1 0.0988354 0.0242899 0.0245138 0.757369 -3.33294 0.198104 0.196461 -0.187999
87 1 0.0742696 0.050323 0.0249122 0.480393 -3.32378 0.267768 0.196074 -0.148525
1606 1 0.0751082 0.0261967 0.0484402 0.656365 -3.31343 -0.210283 -0.231695 0.470933
1689 1 0.099382 0.0521101 0.0499041 0.535439 -3.35058 0.0577091 -0.246128 -0.327812
10 1 0.125429 0.0250086 0.998768 0.376893 -3.33331 -0.145205 0.0472593 0.222899
16 1 0.148747 0.0253055 0.0253922 0.728648 -3.32345 0.353863 -0.150858 -0.344986
91 1 0.123081 0.0508924 0.0244472 0.900364 -3.33302 0.322789 0.0726926 -0.0278383
1610 1 0.124804 0.0269307 0.047967 0.838425 -3.3334 -0.22035 -0.268125 0.515286
1613 1 0.150048 0.00051066 0.0493114 0.185866 -3.32987 0.0433378 0.125414 0.0133135
1693 1 0.152142 0.0500316 0.049081 0.904305 -3.30795 -0.446437 0.00345882 0.585019
15 1 0.174739 -0.000411307 0.0253722 0.204502 -3.33982 -0.0474395 -0.0488136 -0.0506037
20 1 0.199939 0.0254066 0.0245846 0.391166 -3.32209 0.336979 -0.0809421 0.205138
95 1 0.174402 0.0501379 0.0254129 0.306039 -3.30873 0.557207 0.186047 -0.15466
1614 1 0.177621 0.0246243 0.0485976 1.58973 -3.33829 -0.500708 0.122727 0.404049
1617 1 0.198956 -0.00248935 0.0505511 0.809798 -3.3267 0.115425 0.494239 -0.125883
1697 1 0.200353 0.0538857 0.0500305 2.4472 -3.24143 -0.379019 -1.20488 -0.197529
19 1 0.225181 0.999057 0.0245713 0.29953 -3.34326 -0.261805 0.0625838 0.350285
21 1 0.248637 0.999153 1.00004 0.221809 -3.34884 0.51579 0.0311544 -0.237272
24 1 0.250103 0.0231196 0.0249661 0.32009 -3.35381 -0.114508 0.149191 0.0384138
99 1 0.224632 0.0495827 0.0254292 0.176835 -3.34521 -0.062375 -0.0681537 -0.0049074
1618 1 0.223744 0.0237824 0.0497923 0.469681 -3.3808 0.0833344 0.128961 -0.107073
1621 1 0.250194 0.999224 0.0506035 0.251792 -3.36244 -0.0938004 -0.0307342 -0.194704
1701 1 0.250092 0.0488177 0.0501968 0.220918 -3.32357 -0.330836 -0.0341491 -0.0114468
22 1 0.274862 0.0249884 0.999768 0.495329 -3.32569 -0.0144102 -0.542503 0.171255
23 1 0.274957 0.997651 0.0251741 0.459034 -3.34003 -0.0607232 0.500982 -0.323406
28 1 0.298853 0.0252907 0.0239624 0.790532 -3.35889 0.111344 -0.439412 0.310115
103 1 0.273204 0.0487606 0.025424 0.48766 -3.3276 0.354456 0.170548 -0.257739
105 1 0.300702 0.0488198 -0.000641403 0.509315 -3.32489 -0.384679 -0.24652 -0.0254291
1622 1 0.274382 0.0245338 0.0504 0.185921 -3.34845 0.229857 -0.0298235 -0.160592
1625 1 0.300133 0.999276 0.0484994 0.516316 -3.35106 0.0860006 0.262374 0.240756
1705 1 0.299169 0.0503919 0.0502238 0.455448 -3.34516 -0.250119 -0.408871 -0.181505
26 1 0.325145 0.022728 -0.000238638 0.593539 -3.33136 0.0035503 0.384919 -0.157968
27 1 0.326266 1.00017 0.0256163 0.961781 -3.32914 -0.343495 -0.329579 -0.231461
29 1 0.348737 -0.0014844 -0.00286222 1.6558 -3.3173 0.512242 0.153233 0.509461
32 1 0.350663 0.0238314 0.0230297 0.752016 -3.31717 -0.210386 0.158949 0.275905
107 1 0.323956 0.0479376 0.0250775 0.471687 -3.34045 0.106197 0.00089997 -0.215259
109 1 0.35051 0.0503585 0.999631 0.576863 -3.31767 -0.30425 -0.358382 0.140932
1626 1 0.32671 0.0234781 0.0498369 1.08159 -3.28307 -0.671375 -0.0176585 -0.200451
1709 1 0.349059 0.0477919 0.0482483 0.545021 -3.33797 0.166989 0.317106 0.216104
33 1 0.39866 0.999771 0.998973 0.401729 -3.33114 0.302639 -0.126214 0.152475
36 1 0.399334 0.0254092 0.023943 0.294583 -3.33859 0.266207 -0.0716038 0.148111
111 1 0.375564 0.0492944 0.0245372 0.427988 -3.30091 -0.351155 -0.228605 0.0863753
1630 1 0.375085 0.0236408 0.049777 0.336554 -3.35022 -0.0678627 0.201972 0.053469
1713 1 0.400443 0.0492509 0.049805 0.336625 -3.29453 -0.247401 -0.415737 0.00292302
34 1 0.425482 0.0255014 0.999849 0.258768 -3.34735 -0.185124 0.0558908 -0.266574
40 1 0.451835 0.0264041 0.0241032 1.13285 -3.2845 -0.58813 -0.334191 0.0918527
115 1 0.425398 0.0500778 0.0244012 0.246288 -3.36067 0.244105 -0.190903 -0.0539721
1634 1 0.4253 0.0254294 0.0503877 0.530146 -3.30282 0.119819 -0.376618 -0.631172
1637 1 0.450537 0.000589764 0.048291 0.608605 -3.32961 -0.289212 -0.117607 0.173656
1717 1 0.451171 0.0488328 0.0502386 0.861771 -3.24189 -0.744611 0.0729003 -0.36279
1638 1 0.474448 0.0250141 0.0499676 0.299795 -3.31461 0.105536 -0.0433674 0.0965073
38 1 0.475975 0.0236505 0.999186 0.701628 -3.30592 0.258179 0.311302 0.328376
39 1 0.475365 -0.000242197 0.0266634 0.948189 -3.32946 0.211087 -0.153231 -0.7107
41 1 0.500704 1.00029 0.998719 0.312048 -3.35822 0.221759 -0.109903 0.491602
42 1 0.525353 0.0254709 0.999645 0.198423 -3.38388 -0.0955512 -0.00178607 -0.110334
44 1 0.499087 0.0259981 0.0242103 0.336394 -3.35487 0.0884067 -0.17592 -0.263927
119 1 0.473193 0.05026 0.0231494 1.21668 -3.31925 0.755059 0.300678 0.021762
123 1 0.525482 0.0505144 0.0227867 0.318651 -3.3547 -0.0438683 -0.200364 0.165363
1641 1 0.500399 1.00064 0.0496995 0.265005 -3.2861 -0.304131 -0.341886 -0.122456
1721 1 0.499991 0.0492668 0.048599 0.179956 -3.31461 -0.208835 0.229344 0.139847
43 1 0.526141 1.00089 0.0255404 0.41884 -3.3592 -0.254792 -0.213037 -0.317533
46 1 0.575793 0.0253833 -0.00110595 0.416049 -3.32324 -0.216144 -0.385522 0.220115
47 1 0.57376 8.64196e-05 0.0272294 1.15893 -3.34403 0.651853 -0.328667 -0.438108
48 1 0.551591 0.0249237 0.0231084 0.814183 -3.31853 -0.3551 0.284154 0.163508
125 1 0.551137 0.0511602 0.998864 0.272083 -3.3076 -0.34017 -0.392495 0.149289
127 1 0.57564 0.0514317 0.0235718 0.795714 -3.30139 -0.21469 -0.482267 0.275942
1645 1 0.550324 1.00154 0.0508406 0.858757 -3.25993 -0.159881 -0.247912 -0.327475
1646 1 0.574874 0.0264811 0.0495612 1.28189 -3.32127 0.343811 -0.496343 0.17485
1725 1 0.550425 0.0475775 0.0480042 0.861645 -3.312 -0.338233 0.399724 0.342992
52 1 0.600009 0.0243954 0.0254322 0.406547 -3.37259 -0.0555979 0.0116743 0.164256
131 1 0.625512 0.0514905 0.0267439 1.00329 -3.31856 -0.182898 -0.516012 -0.441624
1650 1 0.623409 0.0267061 0.0505743 1.39611 -3.31883 0.335775 -0.479303 -0.192258
1729 1 0.598983 0.0509981 0.0511715 0.678476 -3.29198 0.103082 -0.17164 -0.260807
53 1 0.648429 -0.00132913 -0.000506536 1.13418 -3.29298 0.312711 0.186606 0.322825
55 1 0.673231 -9.45111e-05 0.0238613 0.974292 -3.32173 0.263136 -0.0297555 0.27968
56 1 0.64927 0.0245204 0.0246354 0.487472 -3.35167 0.13092 0.290294 0.0561704
133 1 0.650622 0.0508809 1.0005 0.382552 -3.37831 -0.170293 -0.314671 -0.0263525
135 1 0.676076 0.0489069 0.0243058 0.588432 -3.35669 -0.198206 0.414089 -0.0706983
1653 1 0.65084 0.000665943 0.0494383 0.823378 -3.32884 -0.15315 -0.237317 0.222767
1654 1 0.676027 0.0264676 0.0504115 0.803018 -3.2884 -0.352278 -0.297115 -0.203428
1733 1 0.651038 0.0487124 0.0507853 0.88115 -3.34431 -0.246289 0.324793 -0.0658458
58 1 0.725127 0.0264098 -0.000436606 0.614968 -3.308 -0.000513184 -0.338891 0.306637
60 1 0.699963 0.0243801 0.0243859 0.366567 -3.36609 0.142398 0.0128296 0.121712
139 1 0.724651 0.0506119 0.0251686 0.215718 -3.38761 -0.153306 0.292256 -0.132084
1658 1 0.723353 0.0255892 0.0510427 0.448689 -3.30475 0.0952056 0.15425 -0.040998
1737 1 0.699403 0.0513944 0.0496638 0.188179 -3.32028 0.213687 0.253047 -0.113703
63 1 0.775269 -0.000891129 0.0246124 1.27925 -3.35529 -0.266219 0.437954 0.0483086
64 1 0.74733 0.0248458 0.0279006 1.98883 -3.28574 0.324713 -0.0805723 -0.812496
143 1 0.771805 0.0493988 0.0256667 1.14398 -3.34259 0.596951 0.285519 -0.257974
1662 1 0.773094 0.0257168 0.0499131 0.603086 -3.30339 0.197606 -0.116634 -0.0188545
1741 1 0.748486 0.0507027 0.0504393 0.392816 -3.29459 -0.0028208 0.549425 -0.100779
68 1 0.798391 0.0252737 0.0245785 0.363916 -3.33593 -0.0880399 0.157053 -0.060779
147 1 0.823066 0.0515547 0.0223501 1.5658 -3.31183 0.25203 -0.22716 0.73362
1666 1 0.82333 0.0281663 0.0500763 0.942034 -3.34512 0.298366 -0.0400802 0.211509
1745 1 0.799265 0.0511291 0.0492334 0.513216 -3.33036 -0.139301 0.308836 -0.232364
71 1 0.874334 0.00160904 0.0261107 0.437166 -3.35319 0.244108 -0.225299 0.00806784
72 1 0.847866 0.023602 0.0266274 2.03317 -3.28885 0.310339 0.669743 -0.138383
151 1 0.874219 0.0494355 0.0251043 1.00343 -3.33364 0.0844018 0.34498 -0.194022
1669 1 0.848934 0.000912608 0.0522217 0.880145 -3.28387 0.203885 -0.348893 -0.425124
1670 1 0.875869 0.0263046 0.0503552 0.618837 -3.32687 0.10435 -0.387887 0.029342
1749 1 0.851615 0.0502017 0.0491307 1.63405 -3.31142 -0.856614 0.339399 0.147879
74 1 0.923115 0.0251381 1.00116 0.702288 -3.32785 0.574536 0.443409 -0.314932
75 1 0.926346 0.000723533 0.0252107 0.698007 -3.35266 -0.579511 -0.254611 0.163536
76 1 0.899535 0.0249664 0.0250142 0.340376 -3.3295 0.109181 0.125648 0.466143
153 1 0.899222 0.0520605 1.00115 0.578904 -3.34894 0.0857914 -0.447023 -0.305424
155 1 0.924586 0.0505535 0.026388 0.260298 -3.36078 0.0126887 -0.0675553 -0.379306
1673 1 0.900371 -0.00145693 0.0529696 1.72812 -3.29959 -0.185597 0.743514 -0.940679
1674 1 0.925072 0.0244221 0.0513498 0.605418 -3.3525 -0.202819 0.251274 -0.286524
1753 1 0.900714 0.0515214 0.0510947 0.434708 -3.30161 -0.241458 -0.265224 -0.324712
1681 1 0.000975785 0.0509102 0.0487851 0.523283 -3.32159 -0.352605 0.0408794 0.17052
80 1 0.950569 0.0256454 0.0265525 0.593513 -3.31788 -0.120964 0.264772 -0.732965
159 1 0.974676 0.051856 0.025374 0.433905 -3.31876 0.0230955 -0.307558 -0.0310254
1677 1 0.951868 0.00104851 0.0477462 1.90078 -3.2684 -0.189926 -0.284361 0.709371
1678 1 0.975446 0.0260248 0.0501864 0.497007 -3.32784 0.246947 -0.232221 -0.333019
1757 1 0.949737 0.0509052 0.0495944 0.264431 -3.29416 -0.210343 -0.112621 0.146197
84 1 -7.39009e-05 0.0771655 0.0248901 0.575766 -3.34661 -0.308448 -0.248185 -0.0291552
161 1 -0.0016269 0.101346 0.998647 0.817079 -3.3261 -0.0116256 -0.431752 0.349939
163 1 0.0254283 0.0984125 0.0229545 1.33453 -3.33872 -0.124669 0.562757 0.554608
165 1 0.0506221 0.101306 0.999718 1.00726 -3.32993 -0.420145 -0.53862 0.0429496
1682 1 0.0261767 0.0755604 0.0503827 0.636441 -3.35042 -0.27936 0.336784 -0.312641
1761 1 -0.00193767 0.101036 0.0489852 0.953275 -3.33613 0.613964 -0.375647 0.343915
1765 1 0.0515058 0.100222 0.0502985 0.799202 -3.35038 -0.509124 0.137519 -0.052122
88 1 0.0496026 0.0745367 0.0241309 0.631399 -3.28941 0.176786 0.35479 0.220251
92 1 0.0999656 0.078741 0.0235859 1.7373 -3.27349 0.0320811 -0.813945 0.724393
167 1 0.074218 0.101728 0.0248467 0.354401 -3.29228 -0.152426 0.0797004 0.07153
1686 1 0.0750956 0.0773936 0.0481529 1.00796 -3.34437 0.0360312 -0.58985 0.338599
1769 1 0.10057 0.101343 0.0521263 0.851146 -3.30977 0.0720512 -0.0193312 -0.499998
96 1 0.14907 0.074154 0.026217 0.955567 -3.32362 0.0590842 0.383098 -0.429913
171 1 0.124518 0.100757 0.0259814 0.180785 -3.33707 0.287842 0.243844 0.177397
1690 1 0.126072 0.0758623 0.0502509 0.409016 -3.33194 -0.274346 -0.0590869 0.0971222
1773 1 0.149888 0.100266 0.0526602 0.799232 -3.31935 -0.0151713 0.43595 -0.589658
100 1 0.200115 0.0759155 0.0257726 0.468983 -3.31755 -0.296799 -0.185854 -0.438622
175 1 0.173943 0.0996921 0.0227871 1.62444 -3.28478 -0.025784 0.548637 0.85933
1694 1 0.175278 0.0781151 0.0492907 1.57365 -3.29431 -0.158088 -0.428019 0.197952
1777 1 0.199272 0.100942 0.0512463 0.679736 -3.3085 0.243042 -0.283397 -0.375559
104 1 0.249237 0.0739224 0.0254814 0.23665 -3.30851 0.229618 -0.0225989 -0.169366
179 1 0.225132 0.0970951 0.0266942 1.72675 -3.2923 -0.285186 0.921137 -0.270025
1698 1 0.225363 0.0741446 0.0512975 0.518371 -3.29027 0.382824 0.442373 0.109914
1781 1 0.249204 0.100647 0.0496335 0.379159 -3.31509 0.254014 -0.442922 0.0781332
102 1 0.275161 0.0733026 -0.00171315 0.79089 -3.33064 -0.405757 -0.156208 0.317678
108 1 0.299066 0.0738379 0.024199 0.258623 -3.30424 -0.142056 -0.253156 0.0408121
183 1 0.274118 0.0985078 0.0216292 1.28413 -3.31227 -0.44571 0.254625 0.639085
1702 1 0.2739 0.0741541 0.0489925 0.272299 -3.36829 0.0411706 0.231864 0.1977
1785 1 0.296864 0.0991254 0.0472671 1.38286 -3.34 0.311457 0.195688 0.507287
112 1 0.347583 0.0728993 0.0247344 0.836942 -3.30788 0.513806 0.150922 0.254894
187 1 0.323575 0.0979758 0.0267691 0.707533 -3.32514 0.14526 0.429353 -0.458773
1706 1 0.323807 0.0732637 0.0491449 0.26655 -3.31542 -0.0637904 0.198293 0.309269
1789 1 0.348725 0.0983335 0.0506311 0.162653 -3.34981 0.21161 -0.0329146 -0.389082
116 1 0.400138 0.0721641 0.0246785 0.769213 -3.28067 0.219127 0.459789 -0.0287603
191 1 0.376536 0.0974246 0.0260718 1.30775 -3.28345 -0.626094 0.318845 0.346939
1710 1 0.374479 0.0719612 0.050122 0.460892 -3.33461 -0.407443 0.450862 -0.196996
1793 1 0.398546 0.097229 0.0514569 0.861261 -3.30241 0.539582 0.346915 -0.402002
114 1 0.427696 0.0752478 0.999633 1.21973 -3.36946 -0.521733 -0.148044 -0.0269228
120 1 0.449843 0.0749747 0.0268847 1.20425 -3.31335 -0.0223169 0.00810413 -0.622149
195 1 0.423558 0.0984502 0.0254171 0.760837 -3.36352 0.239939 0.309339 0.242221
197 1 0.450483 0.0999763 0.999373 0.157182 -3.33449 -0.0296701 0.0322594 0.13832
1714 1 0.423396 0.0733394 0.0508023 0.53541 -3.33779 0.458834 0.33902 0.0380149
1797 1 0.44999 0.0982507 0.0503201 0.377917 -3.32872 -0.116838 0.299169 -0.107652
199 1 0.4743 0.100991 0.0248919 0.518787 -3.35466 0.395667 -0.526558 0.0235388
122 1 0.526183 0.0765274 1.0001 0.571064 -3.306 -0.480657 -0.101208 -0.235719
124 1 0.499543 0.0744968 0.0245688 0.332916 -3.39153 -0.0954608 0.376534 0.0494678
201 1 0.500208 0.100911 -0.000580406 0.172909 -3.36184 0.0112077 0.244561 0.234794
1718 1 0.474218 0.0722601 0.0503458 1.26846 -3.28283 0.558354 0.843266 -0.23263
1722 1 0.525897 0.0731819 0.0483399 0.485683 -3.2941 -0.243952 0.239172 0.0214287
1801 1 0.499399 0.100083 0.0503777 0.446321 -3.3436 0.365519 -0.363002 -0.199072
203 1 0.523992 0.101721 0.0257278 0.813677 -3.36934 0.122447 -0.360432 -0.162639
128 1 0.549817 0.0751976 0.024073 0.232936 -3.29862 0.0614349 -0.0471381 0.0395315
205 1 0.549178 0.100425 1.00098 0.688675 -3.3413 0.340395 0.232328 -0.340903
207 1 0.575619 0.0985562 0.0248958 0.722376 -3.34778 -0.228701 0.315817 -0.187945
1726 1 0.573502 0.0728527 0.0492112 0.935646 -3.31515 0.203681 0.277837 0.437272
1805 1 0.550383 0.0981337 0.0490126 0.851086 -3.32432 -0.244771 0.400469 -0.0880527
132 1 0.600681 0.0739744 0.0240277 0.659225 -3.33889 -0.0384401 0.403875 0.257736
209 1 0.598478 0.100162 0.999231 0.580216 -3.35118 0.413325 0.0602358 -0.0360296
211 1 0.62475 0.0996605 0.0249255 0.153897 -3.36545 -0.109059 -0.00194783 -0.0686563
1730 1 0.625312 0.073626 0.0522992 0.870826 -3.30363 -0.243321 0.273681 -0.319767
1809 1 0.598719 0.0994245 0.04939 0.369923 -3.36892 0.230588 -0.128049 0.166479
136 1 0.649531 0.0744703 0.0256329 0.40436 -3.34381 0.303424 0.147346 -0.201188
215 1 0.673915 0.101515 0.0257471 0.57387 -3.26697 -0.000513829 -0.211985 -0.236633
1734 1 0.674847 0.075803 0.0492079 0.358721 -3.33509 0.0530899 -0.231104 -0.00280146
1813 1 0.648643 0.0976396 0.0506946 1.11204 -3.30988 0.0880455 0.64858 -0.166383
140 1 0.69959 0.077364 0.024268 0.4839 -3.36102 -0.0423592 -0.637295 -0.207273
217 1 0.699144 0.101067 0.998753 0.547054 -3.33367 0.354083 -0.051364 0.0783241
219 1 0.724096 0.100436 0.0245565 0.660617 -3.27508 0.125568 0.409218 -0.269261
1738 1 0.723101 0.0783674 0.0500131 0.743451 -3.3318 0.22176 -0.66995 -0.0420708
1817 1 0.698366 0.102335 0.0481094 1.14705 -3.28324 0.345065 -0.060063 0.829582
144 1 0.749533 0.0761615 0.0251178 0.309632 -3.34227 -0.108058 -0.170081 0.0143816
223 1 0.774481 0.102082 0.0247452 0.503876 -3.33964 -0.157188 -0.0979597 -0.108784
1742 1 0.774121 0.0768304 0.0495877 0.329916 -3.39045 0.0422804 0.012168 -0.0690935
1821 1 0.74742 0.101386 0.0486647 1.03852 -3.33201 0.617796 0.202908 0.140254
148 1 0.797907 0.0764096 0.0238524 0.595236 -3.33755 0.0334581 -0.400138 0.194266
225 1 0.799324 0.0990865 -0.00115958 0.985922 -3.36267 -0.321198 0.361781 -0.317096
227 1 0.823584 0.100127 0.0247475 0.511484 -3.21565 0.246684 -0.123504 0.0177766
1746 1 0.8242 0.0753374 0.0487927 0.524797 -3.36953 0.168645 -0.118081 0.208985
1825 1 0.800924 0.101457 0.0497835 0.867185 -3.33123 -0.506856 -0.302738 0.487858
152 1 0.849013 0.0763112 0.025045 0.525135 -3.32653 0.25766 -0.266537 0.029632
231 1 0.87342 0.100704 0.02392 0.55292 -3.34025 0.0901292 0.317541 0.0367312
1750 1 0.873743 0.0788368 0.0487698 1.81393 -3.33455 -0.0471376 -0.323706 0.585306
1829 1 0.846937 0.102677 0.049857 1.47684 -3.3026 0.438625 -0.613887 -0.291101
154 1 0.922756 0.0758056 0.000517682 0.724138 -3.33924 0.403071 -0.143965 -0.157192
156 1 0.897774 0.0760172 0.026544 1.35369 -3.32778 0.343524 0.0041843 -0.375216
235 1 0.925514 0.0985999 0.0246839 1.08066 -3.32869 -0.265229 0.534957 -0.0950502
1754 1 0.923976 0.0762719 0.0497321 0.380392 -3.30357 0.367219 0.00431441 0.175854
1833 1 0.901807 0.102519 0.0504132 1.76256 -3.33543 -0.693429 -0.162262 -0.132061
158 1 0.973031 0.0743034 0.999736 0.557306 -3.32927 0.414967 0.282048 0.0967256
160 1 0.949717 0.0758218 0.0246579 0.303909 -3.31775 -0.160366 -0.248408 -0.036272
237 1 0.949961 0.0998344 -0.00215391 0.86531 -3.33485 -0.318634 0.113964 0.541602
239 1 0.973364 0.100059 0.0256487 0.387566 -3.33057 0.105751 -0.0461306 -0.479642
1758 1 0.973034 0.0749397 0.0508713 1.04283 -3.31689 0.722495 0.267781 -0.314673
1837 1 0.949984 0.100362 0.0513728 0.68068 -3.31973 -0.257281 0.0467526 -0.288111
162 1 0.0235002 0.124804 -0.00085643 0.545834 -3.29889 0.00686128 0.188449 0.41259
164 1 -0.000880189 0.123939 0.0246468 0.212994 -3.342 0.108011 0.184769 0.0702398
168 1 0.0474612 0.12528 0.0254115 0.664517 -3.34522 0.376073 -0.243261 0.148758
243 1 0.0241272 0.149184 0.0250373 0.244439 -3.32498 -0.0683724 0.126579 0.290884
245 1 0.0486187 0.149645 1.00186 0.765261 -3.30788 0.0627722 0.438329 -0.467426
1762 1 0.0246448 0.123411 0.0508288 0.604734 -3.35875 -0.0579916 -0.0315354 -0.232376
1845 1 0.0477489 0.149159 0.0520914 0.760049 -3.30864 0.477979 -0.0202872 -0.514611
172 1 0.0980701 0.124947 0.0251109 0.628525 -3.33473 0.325515 0.261196 0.107299
247 1 0.0738442 0.149867 0.026191 0.421908 -3.32396 -0.0989208 0.20222 -0.376287
1766 1 0.0749096 0.1269 0.0499537 0.878619 -3.354 -0.107947 -0.36283 0.414796
1849 1 0.0998698 0.151398 0.0488886 0.70658 -3.30047 -0.277533 -0.468767 0.286066
176 1 0.15009 0.125505 0.0267072 0.684329 -3.38214 -0.262769 -0.0965135 -0.154599
251 1 0.123534 0.151163 0.0233545 0.565277 -3.28403 0.299269 0.182104 0.626826
253 1 0.14834 0.150358 -0.000434713 0.68503 -3.3383 0.404881 0.131795 0.366599
1770 1 0.1241 0.125479 0.0509617 0.161648 -3.35738 0.116757 0.137161 -0.147256
1853 1 0.149374 0.150896 0.0501962 0.20429 -3.35802 0.057306 0.159358 -0.0852092
174 1 0.173028 0.126135 -0.000385961 0.317216 -3.33539 -0.0440716 -0.0843891 -0.0995313
180 1 0.198031 0.124155 0.022755 1.44694 -3.32818 0.286001 0.141941 0.735668
255 1 0.174328 0.149751 0.0257661 0.388817 -3.37043 -0.113807 0.331698 -0.108559
257 1 0.197998 0.150521 0.999879 0.433876 -3.34364 0.0272075 -0.0690461 -0.00251393
1774 1 0.175133 0.12432 0.0507056 0.465629 -3.32109 -0.274097 0.037174 -0.00607958
1857 1 0.198986 0.148195 0.0503514 0.906568 -3.31185 0.0178329 0.535697 -0.390789
178 1 0.223439 0.124326 1.00105 0.449816 -3.32665 0.214336 0.126429 -0.178363
184 1 0.248067 0.124315 0.0247261 0.438286 -3.33556 0.0436256 -0.0667623 -0.0378415
259 1 0.223936 0.150113 0.025151 0.264851 -3.38007 -0.176478 -0.290398 0.217921
1778 1 0.223618 0.124528 0.05098 0.378315 -3.3133 0.365562 0.120477 -0.610211
1861 1 0.249944 0.149821 0.0495612 0.459282 -3.3339 -0.420025 -0.17256 -0.155509
182 1 0.273489 0.125557 -0.00138622 0.837858 -3.35273 0.343354 -0.211064 0.250493
188 1 0.299061 0.124653 0.0236315 0.342498 -3.32654 -0.0642667 -0.34323 0.291521
263 1 0.274982 0.14963 0.0255188 0.409959 -3.30678 -0.179307 0.252487 -0.440015
1782 1 0.273263 0.125592 0.0472023 0.890642 -3.31816 0.404794 -0.494956 0.565249
1865 1 0.299025 0.149764 0.049131 0.113608 -3.29434 -0.131289 -0.148823 0.2181
186 1 0.324674 0.123402 1 0.2766 -3.366 0.231095 -0.110609 -0.126677
192 1 0.349268 0.122957 0.025094 0.41967 -3.36132 -0.0984474 0.344203 0.315208
267 1 0.323052 0.14823 0.0256446 0.657635 -3.30509 0.653574 0.14324 -0.222146
269 1 0.348562 0.150432 0.999397 0.863527 -3.38526 0.287943 -0.50284 0.191746
1786 1 0.323917 0.125031 0.0506506 0.486286 -3.35597 -0.0112088 -0.301116 -0.359188
1869 1 0.349176 0.15013 0.0491318 0.500619 -3.35447 -0.0635911 -0.351118 0.250644
190 1 0.374214 0.125462 1.00208 1.01462 -3.29138 -0.412165 -0.365031 -0.539737
196 1 0.399056 0.12547 0.0247743 0.762667 -3.31231 0.464925 -0.23472 0.588215
271 1 0.374193 0.148976 0.0262845 0.383663 -3.28413 -0.352556 0.0113752 -0.202364
1790 1 0.374237 0.123264 0.0504246 0.184343 -3.3365 -0.0405875 0.199885 -0.355962
1873 1 0.39907 0.149601 0.0501873 0.17489 -3.32485 0.222621 -0.468345 0.12366
194 1 0.425816 0.123867 1.00063 0.652974 -3.37782 -0.012635 0.318294 0.00547431
200 1 0.451404 0.125291 0.0267602 0.73137 -3.27007 -0.445515 -0.378469 -0.412417
275 1 0.425553 0.150172 0.0259925 0.331345 -3.30539 -0.130634 -0.278736 -0.460968
1794 1 0.42599 0.125481 0.049509 0.687924 -3.36437 -0.609312 -0.397734 0.0719307
1877 1 0.450319 0.149233 0.0491276 0.442317 -3.32822 0.0218352 0.499614 0.57047
279 1 0.47538 0.150097 0.026466 0.739129 -3.30204 -0.0289024 0.337392 -0.456061
198 1 0.474152 0.125872 1.00117 0.596151 -3.32769 0.429933 -0.0982554 -0.371106
204 1 0.499866 0.126897 0.025711 0.459935 -3.27933 -0.0513472 -0.467608 -0.385474
283 1 0.523569 0.150812 0.0241855 0.263227 -3.28421 0.5218 0.220412 0.311221
1798 1 0.477499 0.124732 0.050725 1.11362 -3.28158 -0.56926 0.118356 0.0801703
1881 1 0.499098 0.151206 0.0506278 0.453043 -3.35188 0.470142 0.210594 0.170681
1802 1 0.524503 0.125767 0.049122 0.463261 -3.32443 -0.0685108 -0.18129 0.313851
206 1 0.574916 0.12474 -0.000691113 0.5173 -3.34339 0.0963647 0.108059 0.127648
208 1 0.549559 0.128075 0.0230445 1.95337 -3.31047 0.0496172 -0.709569 0.273966
287 1 0.575203 0.14999 0.0247541 0.62899 -3.31704 -0.315077 0.204092 -0.214768
1806 1 0.573503 0.124361 0.0485076 0.480856 -3.33462 0.164915 0.00423626 -0.0286052
1885 1 0.548053 0.149128 0.0496542 1.13276 -3.29953 0.233479 0.566026 -0.194883
212 1 0.59974 0.126146 0.0247719 0.544449 -3.25686 -0.267739 -0.850603 -0.37163
289 1 0.600421 0.150983 1.00088 0.741998 -3.27658 -0.12547 -0.25801 -0.633013
291 1 0.62443 0.149029 0.0240213 0.478676 -3.26336 0.218262 0.532454 0.0368062
1810 1 0.623788 0.124046 0.0489915 0.378852 -3.34607 0.474914 -0.120289 0.299677
1889 1 0.600547 0.147958 0.0485473 0.712947 -3.28188 -0.411688 0.704569 0.4631
214 1 0.676063 0.125858 0.999294 0.416148 -3.35804 -0.214272 0.178263 -0.019221
216 1 0.649657 0.125348 0.024719 0.265349 -3.34131 0.0692335 -0.0454813 0.147075
293 1 0.649036 0.14934 1.00027 0.989429 -3.37516 0.289717 0.313716 -0.445333
295 1 0.675778 0.151111 0.0229453 0.774031 -3.33643 -0.148131 -0.192047 0.468272
1814 1 0.673125 0.125408 0.051105 1.24304 -3.34339 0.179996 0.0451552 -0.296202
1893 1 0.649071 0.151691 0.0470573 1.2571 -3.31559 0.0367591 -0.65422 0.205512
220 1 0.700158 0.125346 0.0253526 0.619684 -3.35207 -0.0891531 0.513927 -0.337352
299 1 0.724452 0.151989 0.0250771 0.565619 -3.32976 0.464063 -0.0860422 -0.0782575
1818 1 0.726616 0.129087 0.049429 1.59053 -3.31461 -0.134935 -0.524188 -0.0852842
1897 1 0.699799 0.150883 0.0500395 0.377777 -3.33366 -0.19641 0.0478594 -0.364948
224 1 0.749806 0.127369 0.0241476 0.413774 -3.34639 -0.102668 -0.356196 -0.0709368
303 1 0.775519 0.149618 0.0246894 0.92572 -3.35333 0.49066 0.191191 -0.159731
1822 1 0.773286 0.125973 0.0499975 0.642138 -3.35173 0.366854 -0.152529 0.117426
1901 1 0.752748 0.152933 0.0496083 1.78083 -3.31748 -0.615777 -0.331857 0.113341
226 1 0.824397 0.123531 0.999455 0.876029 -3.2953 -0.452573 0.478163 -0.239527
228 1 0.800947 0.123525 0.0258254 1.74654 -3.31441 -0.330278 1.08874 -0.488205
305 1 0.800221 0.152309 0.997741 1.19101 -3.3243 -0.102654 -0.301128 0.888785
307 1 0.824332 0.152478 0.0251443 0.980653 -3.33523 0.0591053 -0.68074 -0.139225
1826 1 0.823896 0.127414 0.052076 1.68664 -3.28589 0.195052 -0.22236 -0.551757
1905 1 0.80083 0.151273 0.0500521 0.484586 -3.33539 -0.612508 -0.306052 -0.0460014
230 1 0.875865 0.126171 -0.00178967 1.49357 -3.27924 -0.850534 -0.39955 0.307344
232 1 0.84658 0.125086 0.022738 1.79716 -3.31911 0.50957 0.223848 0.701909
309 1 0.848264 0.14967 0.999087 0.484702 -3.29602 0.411522 0.0858589 0.254552
311 1 0.872549 0.148297 0.0230544 1.65837 -3.32206 0.261471 0.29021 0.367442
1830 1 0.873459 0.125215 0.0488932 0.64325 -3.37354 0.296848 -0.1454 -0.018406
1909 1 0.851456 0.151833 0.0500103 1.29865 -3.33184 -0.522256 -0.366561 -0.12749
234 1 0.923673 0.125604 0.999939 0.635172 -3.32545 0.0565811 -0.299788 -0.311908
236 1 0.89859 0.12453 0.024113 0.619186 -3.33341 0.09105 0.14656 0.397867
315 1 0.922618 0.149153 0.0232007 0.841743 -3.31456 0.657694 0.405757 0.337919
1834 1 0.925808 0.125984 0.0479405 0.904406 -3.31652 -0.44398 -0.0224265 0.395089
1913 1 0.898448 0.151288 0.0497499 0.809688 -3.32304 0.204085 -0.608562 0.0011362
1841 1 1.00152 0.148741 0.0501977 0.750907 -3.35461 -0.61132 0.102113 -0.0553749
238 1 0.975037 0.1256 0.999029 0.625541 -3.33987 -0.59523 0.0066583 0.28634
240 1 0.948785 0.123844 0.023654 0.481147 -3.35426 0.233969 0.253807 -0.174462
317 1 0.947985 0.150274 -0.00276457 1.11057 -3.35801 -0.00438728 -0.117878 0.534242
319 1 0.972736 0.149396 0.0253502 0.643237 -3.3544 0.429037 -0.127895 -0.159646
1838 1 0.974154 0.124824 0.0496665 0.242444 -3.3042 0.188902 0.39942 -0.105549
1917 1 0.949236 0.150057 0.0486785 0.289722 -3.29982 0.0130195 0.177227 0.146478
242 1 0.022669 0.172136 -0.00044616 1.48524 -3.29501 0.622314 0.921998 0.161584
248 1 0.0493484 0.174808 0.0253534 0.342944 -3.36977 -0.214672 -0.160456 -0.0319931
323 1 0.0244567 0.198582 0.0258901 0.365293 -3.32421 -0.179635 0.0465474 -0.3483
1842 1 0.0242273 0.173636 0.052418 0.796571 -3.29477 -0.0891332 0.353714 -0.727292
1921 1 1.0008 0.200101 0.0498137 0.261344 -3.35224 -0.0588304 -0.107396 0.247913
1925 1 0.047426 0.198653 0.0494059 1.34849 -3.29906 0.517371 0.322994 0.199815
252 1 0.0980903 0.175999 0.0238435 0.663913 -3.31324 0.141768 -0.450663 -0.0948584
327 1 0.0749191 0.199659 0.0240547 0.456323 -3.28346 -0.307722 0.325956 0.376632
329 1 0.0997217 0.200732 0.999344 0.4694 -3.35767 0.0471547 -0.217137 0.0864125
1846 1 0.0736524 0.174487 0.0502108 0.17633 -3.34654 0.0293916 -0.0899019 -0.120204
1929 1 0.0979715 0.199696 0.0500932 0.26364 -3.29275 0.212327 -0.155689 0.266559
250 1 0.126293 0.1766 -0.00144945 1.53754 -3.28183 -0.948974 -0.103434 0.635027
256 1 0.149464 0.177136 0.0242524 0.954896 -3.34186 -0.139962 -0.657007 0.505665
331 1 0.122116 0.198755 0.027904 2.64893 -3.26916 0.512208 0.751814 -1.06137
333 1 0.149292 0.200924 1.00146 0.367583 -3.2901 0.0520425 0.396298 -0.21231
1850 1 0.123271 0.174191 0.0483587 1.0031 -3.27151 0.33953 0.0500118 0.661582
1933 1 0.146643 0.200313 0.0516964 1.55954 -3.26296 0.832608 0.163096 -0.886373
254 1 0.174923 0.177449 1.00147 0.965362 -3.30932 -0.0799056 -0.644243 -0.463597
260 1 0.198875 0.175648 0.02556 0.254628 -3.29974 -0.114559 -0.433587 -0.0953405
335 1 0.17368 0.200574 0.0250226 0.251248 -3.29042 -0.00457628 0.402262 0.209289
1854 1 0.174778 0.176043 0.0504549 0.391762 -3.37387 -0.195432 -0.0923912 -0.161841
1937 1 0.198996 0.201805 0.0480872 1.16308 -3.27869 0.131766 -0.344738 0.670997
264 1 0.247652 0.175669 0.0260235 0.851541 -3.33362 0.304626 -0.452739 -0.401728
339 1 0.222613 0.19935 0.0247592 0.561681 -3.27836 0.606432 0.234541 -0.326804
1858 1 0.221979 0.175397 0.0502615 0.790837 -3.33076 0.132634 -0.289532 -0.0446132
1941 1 0.247542 0.199404 0.0479644 0.703691 -3.31202 0.288427 0.173639 0.433418
268 1 0.299293 0.174919 0.0237609 0.344169 -3.32426 0.01277 -0.0991323 0.371688
343 1 0.273417 0.199921 0.0235806 0.496654 -3.31185 0.154863 -0.221693 -0.0979957
345 1 0.299413 0.198905 1.00004 0.187997 -3.33884 -0.10312 0.375076 -0.134505
1862 1 0.275693 0.175893 0.0485079 1.00121 -3.33669 -0.320959 -0.150837 -0.0871183
1945 1 0.300305 0.200167 0.0498095 0.928156 -3.33426 -0.256505 -0.228971 -0.27052
272 1 0.34933 0.174492 0.0245362 0.188352 -3.37108 -0.0192057 -0.102813 -0.101851
347 1 0.32418 0.198301 0.0234048 0.39125 -3.33299 0.0709799 0.211842 0.433338
349 1 0.348257 0.198908 -0.00193429 0.668099 -3.24633 0.681846 -0.388083 0.494529
1866 1 0.32327 0.173217 0.0491535 0.470032 -3.33854 0.214325 0.475468 -0.0161048
1949 1 0.348825 0.199953 0.0491774 0.300391 -3.38094 0.15366 -0.141764 0.0569004
276 1 0.399273 0.172989 0.0262726 1.13203 -3.29584 0.0090564 0.656767 -0.417711
351 1 0.373709 0.199059 0.0223754 1.02397 -3.39033 0.363081 0.030906 0.406295
353 1 0.401011 0.200738 -0.00275735 1.65214 -3.31488 -0.359255 -0.394099 0.707153
1870 1 0.374124 0.173654 0.0495778 0.232579 -3.34575 -0.160468 0.423856 0.219984
1953 1 0.398646 0.200724 0.047831 1.13312 -3.30217 -0.0111779 -0.823654 0.483198
280 1 0.450784 0.1759 0.0234138 0.876886 -3.35338 -0.0474637 -0.297355 0.199058
355 1 0.424185 0.200516 0.0251896 0.501719 -3.29777 -0.0576986 -0.35118 -0.40214
357 1 0.449765 0.201307 1.00083 0.999024 -3.30194 0.233305 -0.535915 -0.20875
1874 1 0.424719 0.175041 0.0482635 0.464805 -3.3452 0.100256 -0.0435807 0.437743
1957 1 0.447828 0.200561 0.0489459 0.691789 -3.27385 0.569827 -0.273397 0.174648
1878 1 0.473352 0.176414 0.0506042 0.451388 -3.36038 0.0950276 -0.174925 -0.157154