ITEM: TIMESTEP
19250
ITEM: NUMBER OF ATOMS
32000
ITEM: BOX BOUNDS pp pp pp
7.6830833581563835e+00 7.3316916641843662e+01
-3.8842778357932275e+00 8.4884277835793114e+01
-5.7935301857231352e+00 8.6793530185722346e+01
ITEM: ATOMS id type xs ys zs c_csym c_peratom fx fy fz
4 1 0.00726314 0.0337343 0.0258967 6.57235 -3.26 -0.612577 0.148185 0.946872
8 1 0.0477476 0.0286732 0.0223153 1.01802 -3.20964 -0.351549 0.41224 0.981315
3 1 0.0206235 0.00286934 0.021079 1.28676 -3.20464 0.613583 0.54453 0.62339
12 1 0.0882786 0.0251674 0.0192328 0.811748 -3.30061 0.221229 0.0553012 0.423989
16 1 0.13161 0.0218053 0.0156415 1.14393 -3.23527 -0.50742 -0.204624 0.745667
1609 1 0.0885095 0.0026846 0.0429423 0.304441 -3.32809 0.111922 0.0808548 0.235718
1614 1 0.159621 0.022594 0.0393357 1.48535 -3.23897 -0.927996 -0.038702 0.91044
95 1 0.154331 0.0458253 0.0203143 1.86809 -3.30271 0.779747 0.599981 -0.537143
20 1 0.173889 0.0160028 0.0131498 0.660599 -3.22164 -0.15505 0.240592 -0.468768
99 1 0.199622 0.0415677 0.016356 0.804487 -3.30096 -0.140402 0.197097 -0.0300031
1697 1 0.182751 0.0478579 0.0437921 0.837429 -3.34343 0.168651 0.492614 -0.0470403
24 1 0.213325 0.00816362 0.0106937 6.58581 -3.28663 0.313981 -0.0247057 -0.255003
1618 1 0.198788 0.0190227 0.0366451 3.17044 -3.18336 0.697515 0.0524868 0.457761
1701 1 0.228322 0.0473204 0.0405007 4.60465 -3.32913 -0.255828 -0.418538 -0.431569
1622 1 0.239068 0.0128601 0.0364086 8.86345 -3.32248 0.460618 0.0765589 -0.184715
103 1 0.240093 0.0336713 0.0115654 6.71727 -3.30006 0.0633479 -0.0197048 0.361723
1705 1 0.267956 0.0368133 0.0403087 5.2836 -3.32627 0.180632 0.0254781 -0.0745443
28 1 0.272448 0.0123307 0.0133857 0.6987 -3.29473 -0.295133 -0.125712 0.247221
1626 1 0.297412 0.012839 0.0394501 1.06327 -3.32423 -0.127365 0.309948 0.199598
1709 1 0.29733 0.0363821 0.0158044 1.31153 -3.24642 0.0857715 0.405137 0.361277
1630 1 0.329317 0.0181383 0.0190884 0.871675 -3.32101 0.453256 -0.489066 -0.124724
1711 1 0.322241 0.041329 0.0425632 2.686 -3.31805 -0.152624 -0.553923 -0.154107
1713 1 0.355991 0.0426712 0.0225438 1.30296 -3.33985 0.0288443 -0.0613198 -0.379596
1634 1 0.390699 0.0210019 0.0208904 0.873811 -3.32383 -0.053159 0.168311 0.403668
1636 1 0.35862 0.0197016 0.0439025 0.425393 -3.33106 -0.085631 -0.0572175 -0.121627
1715 1 0.386979 0.0426807 0.0436392 0.93619 -3.31995 -0.119126 -0.319586 0.478155
40 1 0.422261 0.0220488 0.000904389 0.847855 -3.31713 0.0270541 0.387973 0.101484
1717 1 0.420072 0.0447889 0.0239824 0.784532 -3.32671 -0.306011 0.15409 0.202563
1638 1 0.451373 0.0242403 0.0265859 0.334933 -3.28313 -0.315129 -0.365896 -0.241147
119 1 0.449792 0.0459869 0.00425155 1.19847 -3.32532 0.371274 0.361962 -0.446104
1637 1 0.421783 0.999887 0.0229469 0.894261 -3.34073 0.041331 -0.333078 0.512783
39 1 0.454873 0.00101518 0.00561963 0.564284 -3.32981 -0.152881 0.0858857 -0.348664
44 1 0.484114 0.0268656 0.00677202 0.615107 -3.33643 -0.469429 -0.0400457 0.142907
1641 1 0.48405 0.00282772 0.028016 5.80821 -3.24987 -0.289078 0.466917 0.260628
1642 1 0.508739 0.0275276 0.0320454 6.14977 -3.25091 -0.00542677 0.159907 -0.549198
43 1 0.516483 0.00588397 0.00953525 0.777899 -3.28584 -0.0383218 0.014985 -0.312049
48 1 0.540317 0.031058 0.0110387 0.238875 -3.36318 0.119052 0.147232 0.0569195
1645 1 0.5402 0.00764401 0.0343899 6.4321 -3.33604 0.102117 -0.37886 -0.191992
47 1 0.573675 0.00713874 0.0130772 2.13416 -3.32646 -0.379693 0.516533 0.39439
1646 1 0.567762 0.0331175 0.0336336 0.870163 -3.30798 -0.224811 -0.0746867 0.222024
52 1 0.600746 0.0337856 0.0166515 1.11168 -3.25745 0.224483 0.829431 -0.332012
1649 1 0.599157 0.0129446 0.0363913 1.32738 -3.26503 0.475318 -0.95202 0.0721656
1650 1 0.627699 0.0382412 0.040168 0.850134 -3.3516 0.157904 -0.527507 -0.208232
51 1 0.635719 0.0128554 0.0177523 1.44568 -3.32556 -0.421061 0.756913 0.569026
56 1 0.661669 0.0397199 0.0214578 0.537271 -3.35145 -0.128367 0.161954 -0.280272
1653 1 0.660132 0.0154776 0.0425095 0.39626 -3.3781 0.0464448 0.112548 -0.00572673
55 1 0.69425 0.0201393 0.0239397 0.297201 -3.31871 0.0699027 -0.185165 -0.00390877
54 1 0.697092 0.0434822 0.00183872 1.06694 -3.33438 -0.322003 0.32266 -0.284232
60 1 0.721209 0.0450059 0.0269476 0.649058 -3.30531 0.231376 -0.229739 0.0713102
57 1 0.726866 0.0232878 0.00302603 0.872493 -3.33179 0.0962971 -0.477464 0.141006
59 1 0.754849 0.0251347 0.0289056 0.507748 -3.32344 -0.667771 -0.458632 0.18647
61 1 0.786292 0.0269183 0.0104411 0.377493 -3.30654 0.557958 0.139079 -0.415087
1578 1 0.761488 0.00300041 0.00698085 1.09248 -3.30915 -0.914359 -0.216271 -0.0748826
1584 1 0.784805 0.00298637 0.0318672 0.849269 -3.22712 0.502652 0.182335 -0.296551
63 1 0.815031 0.0279263 0.0342418 0.250468 -3.3151 -0.166192 0.25635 -0.0411804
1582 1 0.818665 0.00418792 0.01407 1.18755 -3.33001 0.154188 0.305628 -0.296698
65 1 0.846363 0.0284885 0.0150193 0.654376 -3.27256 -0.313506 0.471656 -0.231271
1588 1 0.847818 0.00694501 0.036588 7.36902 -3.29909 0.0939692 -0.520819 0.129313
67 1 0.875488 0.0305437 0.038438 7.1453 -3.25626 -0.266305 0.0459614 0.272852
1586 1 0.876771 0.00687998 0.0158086 6.56924 -3.33126 0.535171 -0.0286202 -0.0447391
69 1 0.903823 0.0316482 0.019434 6.21955 -3.23369 0.425273 0.352045 -0.373202
1590 1 0.919648 0.00224317 0.0245486 3.97617 -3.27234 -0.288302 -0.203284 -0.319333
73 1 0.946389 0.0271444 0.0265948 4.48604 -3.28088 0.426537 0.328277 0.243353
78 1 0.97779 0.0333306 0.0029729 6.29165 -3.33123 -0.347971 0.405821 0.0172805
79 1 0.980994 0.00909768 0.0241545 6.47652 -3.12439 -0.0545565 0.97951 1.27481
85 1 0.0466887 0.0522671 0.998654 0.792857 -3.28825 0.541301 0.292612 0.348449
83 1 0.0317622 0.0583884 0.0289284 3.37723 -3.26249 0.00388622 -0.209533 0.0821407
81 1 0.00746485 0.0593581 0.00382352 5.07161 -3.27223 -0.779144 -0.403034 0.262076
82 1 0.0338121 0.0824062 0.00303756 2.30079 -3.28004 0.219194 0.328048 0.381138
88 1 0.0552649 0.0831593 0.0321233 2.35831 -3.33114 0.176194 0.303805 -0.150418
157 1 0.00491377 0.0813045 0.0303382 4.72187 -3.26795 -0.0060933 -0.239889 0.219176
89 1 0.0894014 0.0488111 0.996224 0.97823 -3.33805 -0.310654 -0.21145 0.273358
91 1 0.114322 0.0494922 0.0244116 1.45245 -3.28232 -0.0469782 0.0753141 -0.39315
87 1 0.0735794 0.0546204 0.0248629 0.522686 -3.34103 -0.0892173 0.165612 0.0448295
92 1 0.101315 0.0791902 0.0296668 1.2989 -3.26 -0.633463 0.0961998 -0.368146
86 1 0.0770268 0.0795881 0.00249185 1.91786 -3.33544 -0.240197 -0.334385 -0.000364983
90 1 0.11898 0.073542 0.000366001 1.09548 -3.30627 -0.458637 -0.289602 0.142957
96 1 0.141524 0.0773647 0.0250994 0.676648 -3.28905 0.341941 -0.542282 0.241541
100 1 0.183937 0.0721484 0.0218102 0.408977 -3.30629 -0.347068 -0.0414857 0.0330596
104 1 0.225791 0.0690763 0.0169569 1.51553 -3.18236 0.422169 -0.405101 0.686988
183 1 0.249602 0.0932046 0.0185946 0.736112 -3.20507 0.605175 0.456107 -0.278588
1706 1 0.266999 0.0580136 0.0158177 5.11631 -3.30186 0.204274 0.269246 -0.426478
1698 1 0.207565 0.0757181 0.0449008 1.20942 -3.30931 0.397351 0.08895 -0.0241619
1702 1 0.252842 0.0721526 0.0397183 3.04767 -3.20705 -0.168006 0.347838 0.454896
1712 1 0.292955 0.06463 0.0400643 8.40819 -3.27014 0.116734 -0.185499 0.0174906
1789 1 0.292963 0.0867981 0.0161855 5.96477 -3.30745 0.159594 -0.108107 -0.099624
1710 1 0.322475 0.0627531 0.0180391 1.42881 -3.30458 0.206276 0.279851 0.338843
1791 1 0.322027 0.0884247 0.0422451 6.93725 -3.33665 -0.127797 0.105758 -0.305532
1793 1 0.353693 0.088997 0.0199217 0.735827 -3.32523 -0.270239 -0.502535 -0.0191119
1716 1 0.352147 0.0632593 0.0455702 1.50796 -3.2576 -0.148057 0.0455279 -0.662235
1714 1 0.385893 0.0662741 0.0239644 0.975099 -3.26564 -0.59703 0.126972 -0.416395
1795 1 0.378197 0.0887865 0.0450775 0.864877 -3.29915 -0.0337143 0.122235 -0.0691958
120 1 0.416893 0.0688835 0.00278051 0.545353 -3.31106 0.389259 -0.0859338 0.0254315
1797 1 0.410435 0.0912711 0.0240274 0.82477 -3.35522 0.31702 0.170548 0.117751
1718 1 0.448832 0.0702896 0.0249437 2.07017 -3.2431 -1.36013 0.277159 -0.0130475
1799 1 0.439426 0.0925401 0.0467788 0.838248 -3.3623 -0.377239 0.363618 -0.00368134
1721 1 0.474821 0.0488105 0.028399 1.56616 -3.17283 1.19191 0.00749598 -0.51034
124 1 0.478628 0.0737065 0.00542078 0.652995 -3.32108 -0.152725 0.106719 -0.391326
123 1 0.508371 0.0532682 0.010017 1.11559 -3.27585 0.34067 -0.67476 -0.434035
1722 1 0.505463 0.074919 0.0291942 0.677873 -3.25409 -0.474898 0.607266 0.154462
1725 1 0.533575 0.0534104 0.032762 1.20631 -3.19675 1.40901 0.17317 -0.424888
128 1 0.535101 0.0784006 0.00854556 0.777465 -3.29258 0.220301 -0.403427 0.213513
1726 1 0.562982 0.0786867 0.0342604 0.414355 -3.3484 0.0685402 0.275188 -0.0125749
127 1 0.567938 0.0570615 0.014348 0.59602 -3.36895 -0.190198 -0.240617 -0.37999
132 1 0.596435 0.0821953 0.0153994 0.303507 -3.30404 -0.0582121 -0.261778 0.174993
1729 1 0.59642 0.0580905 0.0369822 0.376318 -3.30196 0.124554 0.026147 -0.106451
1730 1 0.621954 0.0834626 0.0387872 0.573174 -3.32013 0.539084 -0.259409 0.177448
131 1 0.630163 0.0617619 0.0179259 0.609033 -3.36591 -0.200742 -0.374031 -0.0933216
136 1 0.656782 0.0861215 0.0197044 0.352 -3.30917 -0.13683 -0.224305 0.247175
1733 1 0.657151 0.0627218 0.0411446 0.307483 -3.33963 -0.0847808 0.234101 0.0528591
135 1 0.692115 0.0664373 0.0220096 0.998825 -3.33192 -0.438245 0.0413524 0.17902
134 1 0.686808 0.0900202 0.00177887 1.0666 -3.32528 0.879448 -0.12954 -0.434889
140 1 0.717058 0.0934602 0.0248652 1.12843 -3.30359 0.0119508 -0.674451 -0.122829
137 1 0.724726 0.0699129 0.00352616 1.57108 -3.27535 -0.909856 -0.151023 0.142405
58 1 0.752205 0.0478844 0.00781042 0.859039 -3.28435 0.376632 0.0535407 -0.414089
64 1 0.780839 0.0484494 0.0313407 0.307534 -3.30464 0.44274 0.429099 -0.019115
139 1 0.748569 0.0703028 0.029052 0.294392 -3.26599 0.265434 0.0948926 -0.327012
138 1 0.750224 0.0936592 0.00509264 0.941866 -3.30389 -0.340578 0.528753 0.549067
144 1 0.777168 0.0948357 0.0311791 0.402972 -3.34855 -0.169834 0.424359 0.027057
141 1 0.780571 0.0739092 0.0104582 0.503605 -3.31929 0.321559 -0.327408 -0.353249
62 1 0.814208 0.0512967 0.0125039 0.332938 -3.36362 -0.100622 0.217162 0.0572941
143 1 0.809473 0.0746969 0.0338698 0.265406 -3.33561 0.0334548 -0.378444 -0.335772
68 1 0.843096 0.0522777 0.0356327 0.528246 -3.35321 -0.392939 0.322796 0.222292
145 1 0.841318 0.0786127 0.0130927 0.654931 -3.30232 -0.339726 -0.457232 0.458877
66 1 0.873449 0.056603 0.0169615 0.681959 -3.31834 0.0251602 -0.294472 -0.0553698
147 1 0.86927 0.0800345 0.0366066 1.11164 -3.31646 -0.262673 -0.390193 0.624623
72 1 0.901623 0.0547687 0.0423398 6.83456 -3.27139 0.137899 0.33434 -0.889634
149 1 0.901572 0.0807158 0.0194515 0.912435 -3.294 0.0111352 0.108753 -0.411135
151 1 0.92899 0.0815079 0.0429601 6.38206 -3.31131 0.0349614 -0.113426 -0.206052
70 1 0.932043 0.0592537 0.0205449 7.11157 -3.31325 0.0429951 -0.000880447 -0.0722504
74 1 0.974586 0.0550493 0.0273639 6.37028 -3.27236 0.150475 -0.352849 -0.165392
153 1 0.960482 0.0872146 0.0235183 6.93028 -3.25931 -0.169613 -0.646013 -0.514446
30555 1 0.99041 0.0872549 0.00368216 8.03628 -3.20527 0.032387 0.190061 -0.284591
30476 1 0.962058 0.0646229 0.000440236 9.46583 -3.33053 -0.114818 -0.245145 0.065614
158 1 0.0269263 0.107178 0.032404 5.09771 -3.17265 0.0508534 -0.449202 0.011868
30560 1 0.0189294 0.113074 0.00422078 11.0196 -3.22783 -0.0339151 0.106505 -0.0411109
161 1 0.0548762 0.128379 0.0351594 5.11786 -3.24055 0.354875 0.662415 0.298974
30639 1 0.048676 0.137202 0.00723218 11.7411 -3.28946 -0.316313 0.416076 -0.285598
237 1 0.0136702 0.135919 0.0260703 7.1563 -3.3125 0.285294 -0.0296563 0.0281096
165 1 0.0584117 0.107092 0.00907339 6.19639 -3.289 0.593912 0.12847 0.113166
167 1 0.0838821 0.106848 0.035548 6.14813 -3.28582 0.000916568 0.142036 0.0253345
166 1 0.0890931 0.13371 0.0136517 6.85764 -3.29173 -0.238953 -0.165621 -0.0209793
169 1 0.103589 0.104168 0.00767314 1.75252 -3.32043 -0.465027 0.121938 -0.247128
172 1 0.108916 0.134692 0.0404208 4.23509 -3.31238 0.128103 -0.0840532 0.17603
171 1 0.126754 0.10637 0.0341414 0.827459 -3.25815 -0.0329196 0.345763 -0.538415
176 1 0.131034 0.130834 0.0150594 1.98881 -3.26904 0.555123 -0.231031 -0.0198758
173 1 0.142686 0.0990585 0.00504931 2.26029 -3.23726 0.0725842 0.356787 -0.502342
175 1 0.167925 0.102091 0.0288757 1.16859 -3.33633 0.349543 0.0578747 0.366977
180 1 0.173554 0.129255 0.0125506 7.63875 -3.1184 -0.134009 -0.2877 0.876411
1774 1 0.15466 0.131224 0.0400149 1.40998 -3.27378 -0.0855207 0.0918103 -0.256579
1778 1 0.1958 0.125884 0.0375288 7.74809 -3.26339 0.12939 0.370072 -0.622271
179 1 0.20962 0.100219 0.0201069 5.73889 -3.26901 -0.073047 -0.0167718 0.315639
1782 1 0.232048 0.127046 0.021067 6.98441 -3.35189 0.21628 0.0519622 -0.0196234
1786 1 0.27472 0.120799 0.0171879 2.00357 -3.29548 0.437399 -0.27234 0.580859
1869 1 0.305376 0.143409 0.0197294 0.794279 -3.24468 -0.295023 -0.332722 0.364019
1790 1 0.323152 0.110274 0.0154365 8.16353 -3.32766 -0.467731 0.128015 -0.0764871
1785 1 0.276818 0.0988311 0.0410099 2.31086 -3.29093 0.285168 0.0147955 0.154179
1792 1 0.305529 0.122222 0.0422884 1.4662 -3.30758 -0.395393 -0.198983 0.0158368
1873 1 0.347075 0.137714 0.0159782 7.66049 -3.30716 -0.0839584 -0.548563 0.201987
1794 1 0.379019 0.112751 0.0196318 0.785221 -3.31525 -0.197559 0.282134 -0.0384457
1796 1 0.346362 0.116347 0.0402688 11.3008 -3.22976 -0.02526 -0.90118 -0.1427
1875 1 0.374672 0.136758 0.040564 6.48341 -3.24091 0.139496 0.669233 -0.117497
199 1 0.444117 0.0930894 0.00438535 0.86668 -3.34984 0.112964 0.395188 -0.0620768
200 1 0.413084 0.115251 0.00202984 0.699045 -3.33026 -0.0462936 -0.366477 -0.29422
1877 1 0.407713 0.13825 0.0213174 0.522954 -3.24075 -0.470657 0.106073 -0.071981
1798 1 0.439801 0.118302 0.0272852 2.24282 -3.28047 -0.286888 -0.817741 -0.479773
279 1 0.43749 0.139211 0.00140235 1.04825 -3.29773 0.328161 0.606291 -0.0784137
1800 1 0.403638 0.115888 0.0435018 1.63765 -3.26823 0.54586 -0.579272 0.230236
1801 1 0.472873 0.0956532 0.0270703 0.362117 -3.34304 0.106567 0.590656 -0.188655
204 1 0.470215 0.120446 0.00551296 0.647626 -3.32291 0.0664094 -0.565406 0.0148884
1881 1 0.462928 0.143146 0.0270326 0.829285 -3.30013 0.58662 0.212132 -0.0813977
1802 1 0.498122 0.123617 0.0293185 1.32417 -3.34816 -0.0032944 -0.456198 -0.0857746
203 1 0.504052 0.0996642 0.00554659 0.688793 -3.36511 -0.334976 0.11575 0.207242
1805 1 0.530968 0.100097 0.0289083 1.39998 -3.305 -0.197809 0.246662 0.826567
208 1 0.53286 0.122748 0.00970753 0.678164 -3.33207 -0.199781 0.38965 -0.556813
1806 1 0.56034 0.124804 0.0336887 0.514406 -3.31753 -0.329328 -0.0226909 0.0518228
207 1 0.564393 0.101762 0.0125553 0.362402 -3.30719 0.139853 0.171872 -0.136739
1809 1 0.593684 0.104836 0.0363741 0.707296 -3.30929 -0.514289 0.036431 -0.297868
212 1 0.590647 0.128036 0.0142694 0.641663 -3.31232 0.35476 -0.523624 0.133374
211 1 0.625936 0.106446 0.0163077 0.723854 -3.32709 -0.488794 0.181748 0.481553
1810 1 0.619737 0.130552 0.038101 0.686217 -3.31467 -0.0170862 -0.337963 -0.207277
1813 1 0.650882 0.107319 0.042008 0.729469 -3.34731 -0.118069 0.373024 0.112418
216 1 0.651648 0.131804 0.0185548 0.561089 -3.31868 -0.197892 0.105922 0.231832
215 1 0.682809 0.111709 0.0234786 0.549344 -3.29925 0.20866 0.269901 -0.296407
1814 1 0.676218 0.1342 0.0434175 0.64483 -3.32842 0.424584 -0.239825 -0.116214
220 1 0.711445 0.139269 0.0258579 0.669288 -3.30677 -0.359577 -0.530866 0.0103383
217 1 0.716428 0.116486 0.0047943 1.07146 -3.36043 0.0516751 -0.140458 -0.331543
219 1 0.744139 0.116357 0.0283266 0.371178 -3.34594 0.209866 0.197872 -0.124573
218 1 0.743717 0.142602 0.00820921 1.6637 -3.2892 -0.0265834 -0.624336 -0.848678
224 1 0.769767 0.14232 0.030607 0.460906 -3.26363 0.530499 -0.245807 0.0920653
221 1 0.776038 0.119407 0.00857334 0.457339 -3.37466 -0.170983 0.136263 0.0312601
142 1 0.81047 0.100388 0.0113621 1.04747 -3.28313 -0.59731 -0.505028 -0.0421497
148 1 0.834779 0.0999507 0.0352758 0.408067 -3.29171 0.293038 -0.0608696 -0.197119
223 1 0.803709 0.121286 0.0325918 0.350045 -3.32626 -0.265084 0.216317 -0.157432
225 1 0.835386 0.124723 0.011005 1.08608 -3.2868 0.267162 0.0192038 0.621131
227 1 0.863773 0.124083 0.037096 0.455955 -3.28189 -0.531651 0.271946 -0.0333634
146 1 0.868266 0.102307 0.015274 0.186868 -3.34015 0.00990143 0.117301 -0.123268
152 1 0.89627 0.103997 0.0392274 0.407127 -3.33117 0.0614654 -0.0970172 0.526154
150 1 0.92784 0.106369 0.0201916 0.432435 -3.2904 -0.196222 -0.0644601 -0.420024
229 1 0.895362 0.127869 0.0199804 1.30351 -3.27023 0.240125 -0.335924 -0.810923
231 1 0.924442 0.12978 0.041861 0.664721 -3.2746 -0.507069 -0.16169 0.0738772
156 1 0.952436 0.108022 0.0433284 7.19377 -3.24762 1.06005 0.0547794 0.129039
154 1 0.98769 0.110144 0.0222274 7.88164 -3.28105 -0.245953 0.383518 0.753065
233 1 0.954928 0.130298 0.0193675 1.6506 -3.25463 0.126795 0.169308 0.874487
30556 1 0.96059 0.108631 0.998462 0.977702 -3.21782 -0.404994 -0.0450697 0.34084
30635 1 0.987265 0.134303 0.00150233 0.494015 -3.28285 0.0490512 0.333312 -0.220011
238 1 0.0412218 0.160016 0.0281817 6.50147 -3.35789 -0.175967 -0.128249 -0.124808
30640 1 0.0165159 0.162046 0.00203608 3.45749 -3.2651 -0.641405 -1.14265 0.859819
30719 1 0.0432687 0.183802 0.00521748 0.442151 -3.21266 -0.21162 -0.0844813 -0.0366012
317 1 0.0113089 0.183275 0.0252992 1.31964 -3.29232 0.0600315 -0.592565 0.70434
241 1 0.0669297 0.184554 0.028378 6.29746 -3.22819 0.335596 0.0245146 0.328819
162 1 0.0801534 0.156241 0.0367738 6.32086 -3.25268 0.129703 -0.281739 0.303501
30564 1 0.0756958 0.162655 0.00715071 9.80939 -3.21338 -0.23272 0.401236 0.931724
245 1 0.102567 0.187851 0.0115731 9.08455 -3.30906 -0.163545 0.107807 -0.324435
247 1 0.103277 0.182292 0.0425773 7.90365 -3.19248 0.619619 -0.317328 0.0146279
249 1 0.116534 0.15942 0.0191658 9.666 -3.31156 -0.224719 0.194379 -0.239113
251 1 0.137518 0.158635 0.0442977 9.74506 -3.30362 -0.253652 0.6827 0.765098
250 1 0.136787 0.187242 0.0283221 7.38506 -3.13615 0.163118 -0.406819 -0.520992
255 1 0.159431 0.15837 0.0199286 3.95681 -3.23453 -0.177452 -0.0737332 -0.618446
260 1 0.180113 0.185939 0.0244437 8.10066 -3.08427 -0.39366 0.284146 0.30356
1857 1 0.180692 0.158745 0.0433571 1.06025 -3.24813 -0.086659 -0.339279 0.372341
259 1 0.200028 0.150768 0.0175582 9.01794 -3.07859 0.190333 -0.0516506 0.305795
264 1 0.222801 0.175155 0.0148489 9.86375 -3.2624 0.309229 0.225009 -0.0286899
1861 1 0.225136 0.153398 0.0385862 6.67009 -3.20432 -0.177943 -0.410612 0.00598458
1858 1 0.206204 0.18129 0.0445879 7.06399 -3.15308 0.549549 0.291866 -0.247476
1865 1 0.262525 0.151769 0.0213688 7.06754 -3.27064 -0.029939 -0.678995 -0.0559867
268 1 0.260254 0.170513 0.998293 4.39912 -3.3163 -0.141142 -0.224591 -0.14562
1862 1 0.250909 0.175595 0.0368178 6.29932 -3.23007 -0.0558113 0.641097 0.201304
1866 1 0.291933 0.173587 0.0267167 1.51342 -3.23533 -0.942446 -0.120909 -0.000662651
1870 1 0.330305 0.169088 0.0215957 0.981896 -3.24811 0.983665 -0.262269 -0.216014
1871 1 0.332982 0.146159 0.0433665 0.714831 -3.29316 0.0615429 0.323474 0.142213
1874 1 0.374795 0.160485 0.0180334 7.18624 -3.34305 -0.277931 0.0970372 0.151163
1953 1 0.361831 0.193313 0.0224316 1.69762 -3.26744 -0.794599 -0.26781 0.286878
280 1 0.406147 0.16138 0.998284 0.160226 -3.33755 0.298609 0.240344 -0.0545322
1957 1 0.40105 0.185156 0.020543 6.31568 -3.30303 0.241895 -0.0121341 -0.395623
359 1 0.434227 0.187632 0.000152981 0.355924 -3.27475 -0.477053 0.0142408 -0.086694
1878 1 0.433327 0.163765 0.0222105 0.564353 -3.30007 -0.0338686 0.207199 0.0924243
1961 1 0.46117 0.188462 0.0252367 0.395612 -3.35921 -0.0040266 -0.0302749 0.149231
1880 1 0.400461 0.162143 0.0419768 6.7088 -3.30259 -0.501554 0.0910817 0.445504
283 1 0.495705 0.144398 0.00654846 1.42163 -3.29727 0.742978 0.507115 0.159654
284 1 0.463336 0.168111 0.00194198 2.85979 -3.25212 1.14126 -0.695021 0.506071
1882 1 0.493229 0.166393 0.0274366 1.38895 -3.35638 -0.241327 0.169125 0.0728077
363 1 0.49667 0.191569 0.00688484 1.44982 -3.33116 -0.330011 -0.203466 -0.218453
1885 1 0.528367 0.144881 0.0298523 1.81787 -3.3318 -0.420143 0.610672 0.201966
288 1 0.526973 0.170404 0.00913526 0.499746 -3.36135 -0.0486213 -0.319372 0.10772
287 1 0.559666 0.14863 0.010777 0.388864 -3.27882 -0.334091 0.0365091 0.202719
1886 1 0.555134 0.17321 0.0335682 1.64368 -3.25503 -0.844257 -0.159418 -0.447682
1889 1 0.583554 0.150619 0.0365316 1.18562 -3.28564 0.915692 0.224935 -0.607528
292 1 0.583431 0.174509 0.0133122 1.38678 -3.29931 0.881625 0.158788 0.467912
291 1 0.617221 0.151397 0.0164323 1.43569 -3.29764 0.0195398 0.819547 0.573579
1890 1 0.614228 0.176956 0.0404954 1.48232 -3.3427 -0.245564 -0.193644 -0.4484
1893 1 0.645805 0.156506 0.040905 0.606964 -3.2911 -0.0885947 -0.0669781 -0.0587711
296 1 0.645725 0.179861 0.0194018 0.281077 -3.31854 -0.205243 0.00158069 0.15847
295 1 0.674884 0.158138 0.0212183 1.42579 -3.28432 0.86083 -0.0172502 0.249633
1894 1 0.673654 0.181485 0.0438241 0.284601 -3.36912 0.00320173 -0.0457713 -0.129461
300 1 0.70649 0.183539 0.0249106 0.422086 -3.35947 -0.237764 0.105839 0.306494
297 1 0.709727 0.161248 0.00486831 1.00759 -3.30978 -0.0304646 -0.148304 -0.501197
299 1 0.740441 0.163877 0.0297682 1.39082 -3.29347 -0.403421 0.273735 -0.195742
298 1 0.736467 0.184662 0.00480049 0.866614 -3.30162 0.480093 0.173372 0.214396
304 1 0.7625 0.190663 0.0308449 2.4879 -3.20595 1.19467 -0.988987 -0.839797
303 1 0.796671 0.167055 0.0337491 0.613343 -3.3346 0.0912541 0.169235 -0.127959
302 1 0.795233 0.190017 0.0108782 0.889239 -3.34934 0.195316 0.153138 -0.202149
301 1 0.772478 0.164084 0.0100693 2.14865 -3.27566 -0.372713 0.675628 -0.497757
222 1 0.803913 0.145095 0.00834404 1.35462 -3.25772 -0.30292 -0.275446 0.781716
226 1 0.863825 0.147655 0.015043 0.718825 -3.34427 -0.340127 0.261048 0.120787
228 1 0.829402 0.146005 0.0345374 0.274296 -3.40274 0.0429144 -0.0181614 0.0477367
305 1 0.828245 0.170064 0.0131535 0.560535 -3.32406 0.286833 -0.120329 -0.166783
307 1 0.855421 0.170158 0.0376636 0.953673 -3.32017 0.6655 0.135425 -0.447394
232 1 0.890771 0.151257 0.0393032 0.700142 -3.32072 -0.252651 0.0179438 0.293188
230 1 0.922121 0.151259 0.0208761 0.807162 -3.28906 0.170674 0.649068 -0.160361
309 1 0.889998 0.174013 0.0170476 0.829772 -3.31944 0.0867825 -0.432014 0.593457
311 1 0.916752 0.175141 0.0447993 1.6903 -3.28592 0.0419056 -0.202827 -0.726688
236 1 0.950155 0.153762 0.0442889 0.416464 -3.26502 0.277938 0.167283 -0.182
234 1 0.98191 0.154354 0.0230345 1.60239 -3.31262 0.101134 0.632245 0.191324
313 1 0.951834 0.176578 0.0238737 1.05925 -3.30844 -0.17824 -0.189652 -0.26322
30636 1 0.950754 0.154576 0.000654809 1.9327 -3.29998 0.436587 0.342245 -0.159225
30715 1 0.983394 0.180753 0.0034132 0.819559 -3.29539 -0.138513 -0.325563 -0.0394822
242 1 0.0675819 0.208499 0.00591272 1.27724 -3.17207 0.178201 -0.0116537 0.7148
318 1 0.0401947 0.20692 0.027868 0.782821 -3.29046 -0.485062 -0.019476 0.325133
323 1 0.0649049 0.230732 0.0290033 1.14589 -3.25214 -0.284629 0.316463 0.82827
321 1 0.0372929 0.230092 0.00572891 0.598322 -3.33856 -0.120085 -0.0387847 -0.0124598
30720 1 0.0108986 0.204803 0.00541947 0.440726 -3.29895 -0.127239 0.275272 -0.497471
397 1 0.006929 0.22724 0.0272144 0.264699 -3.32928 -0.118463 0.113966 0.0306519
248 1 0.0931332 0.2092 0.0315104 5.25939 -3.18549 -0.0230931 0.31202 -0.342969
246 1 0.126262 0.214465 0.0107727 9.27675 -3.35428 0.80953 -0.579649 0.175562
325 1 0.0957202 0.232556 0.0112373 0.686082 -3.25999 0.128996 0.684359 -0.248133
327 1 0.12364 0.235005 0.0354252 4.63021 -3.31146 0.244764 0.348138 -0.221076
331 1 0.158562 0.215236 0.0312287 7.40409 -3.22932 -0.122032 0.376774 -0.164418
333 1 0.170853 0.210306 0.00462819 4.77177 -3.22081 -0.696646 -0.0971614 0.0621743
335 1 0.192475 0.211878 0.0451232 7.37791 -3.24616 0.269292 -0.122479 -0.0217246
334 1 0.193108 0.235832 0.0123675 5.33277 -3.26605 -0.18591 -0.0509033 -0.0358191
339 1 0.208768 0.20732 0.0126991 8.13226 -3.16377 -0.00686768 -0.519954 0.0209006
344 1 0.233148 0.230659 0.0091661 2.0887 -3.24836 0.692469 -0.169664 0.195373
343 1 0.247573 0.198913 0.00664942 1.80323 -3.30533 0.0345207 0.281713 -0.0919044
1941 1 0.232462 0.206439 0.0367443 2.53345 -3.30025 0.170593 -0.150957 0.186346
1942 1 0.261365 0.230256 0.0407336 2.14683 -3.33747 -0.147157 0.222102 -0.467804
340 1 0.217576 0.236099 0.0403989 1.30964 -3.26729 0.686997 -0.453944 -0.210776
347 1 0.289201 0.194153 0.00304513 0.732431 -3.3087 -0.110872 0.0495671 0.452685
348 1 0.276153 0.224023 0.00747372 0.844569 -3.33439 -0.168971 -0.104244 0.723013
1945 1 0.273667 0.201293 0.0339264 1.04129 -3.3393 0.174482 0.27938 -0.319495
1946 1 0.304158 0.227416 0.0347289 0.786127 -3.29914 -0.562594 -0.210048 -0.561971
1949 1 0.316725 0.198169 0.0286596 0.578868 -3.33272 0.1343 0.429369 -0.23005
352 1 0.318954 0.220878 0.0049798 0.484907 -3.3538 -0.246784 -0.0954919 0.277715
1950 1 0.347792 0.222404 0.0288213 0.988844 -3.3081 -0.795998 -0.019651 0.223793
356 1 0.360049 0.214842 0.000937904 0.236439 -3.2973 0.112678 0.11028 -0.359655
1954 1 0.386274 0.21752 0.0235115 1.39555 -3.22526 0.452782 0.121133 0.42278
435 1 0.389567 0.240534 0.00302565 0.791513 -3.32125 -0.0975205 -0.350822 -0.0785352
1958 1 0.427341 0.211421 0.0222674 7.89011 -3.30508 0.0546264 -0.573046 0.0407141
364 1 0.461518 0.211056 0.00321803 0.557473 -3.29385 0.23587 -0.139506 -0.367712
2041 1 0.454129 0.233842 0.0224991 6.37252 -3.28475 0.522066 0.489547 0.575975
1962 1 0.488895 0.214986 0.0261609 1.05287 -3.29413 -0.0363796 -0.29177 0.158107
1965 1 0.518551 0.192336 0.0335352 2.59454 -3.27111 0.499641 0.0485636 -0.959144
368 1 0.522827 0.2165 0.00850733 0.602173 -3.28083 -0.323603 0.524101 -0.322915
367 1 0.550787 0.197082 0.0115898 1.81033 -3.32431 0.778074 -0.396633 0.278943
1966 1 0.54714 0.218327 0.036169 2.59328 -3.23691 0.405605 -0.473038 -1.19364
1969 1 0.582748 0.197552 0.0348369 1.7205 -3.32137 -0.78736 -0.0176743 0.432274
372 1 0.580734 0.223447 0.0162676 2.49058 -3.27307 -0.182155 -0.942106 -0.94354
371 1 0.612733 0.199524 0.0165632 0.563738 -3.26493 0.246689 0.139934 0.0565794
1970 1 0.607303 0.222168 0.0392615 0.893545 -3.24665 0.536681 -0.0857232 -0.337695
1973 1 0.640896 0.202412 0.0398991 0.57199 -3.34578 0.0534144 0.0509239 0.425962
376 1 0.639406 0.225591 0.0189026 0.405476 -3.39665 0.455305 -0.0381268 -0.230096
1974 1 0.66781 0.22848 0.0438617 0.611805 -3.33906 0.287632 -0.494947 -0.519183
375 1 0.673787 0.205146 0.0210972 0.217332 -3.38573 0.0248911 0.135975 0.0375975
379 1 0.733536 0.209017 0.0253325 0.38072 -3.26898 -0.764474 0.340549 0.193706
380 1 0.702653 0.230609 0.0223019 0.809396 -3.34256 -0.675842 -0.384782 0.211201
377 1 0.705671 0.205371 0.00128054 0.477105 -3.31272 -0.385789 0.345735 0.293103
378 1 0.731426 0.231901 0.00138684 0.995617 -3.29951 -0.0150302 -0.0189289 0.480659
384 1 0.759628 0.234191 0.0279711 0.286199 -3.31157 0.0266044 -0.442861 -0.060699
381 1 0.762712 0.211611 0.00551918 0.520588 -3.33097 0.4018 -0.0982029 0.0404869
383 1 0.793676 0.21244 0.030653 0.881169 -3.37871 0.0135841 0.418109 0.230991
382 1 0.791746 0.235433 0.00847701 0.417576 -3.37001 -0.193966 -0.0831897 0.0141372
308 1 0.825938 0.191394 0.0340114 0.474446 -3.31791 -0.306425 0.458891 0.256484
306 1 0.858036 0.194835 0.0153417 0.625596 -3.26373 -0.269047 -0.341798 -0.15112
385 1 0.825969 0.214073 0.0107305 0.849255 -3.30008 -0.585848 0.360561 0.528763
387 1 0.852422 0.217855 0.0361127 0.248023 -3.33805 -0.518908 -0.00735576 0.42375
312 1 0.883957 0.196294 0.0385428 0.722141 -3.29747 -0.0747076 -0.327679 0.238265
310 1 0.919228 0.194947 0.0219596 2.90926 -3.27328 -0.362834 0.667801 -0.464041
389 1 0.882753 0.219146 0.0174125 0.721562 -3.31224 0.77781 0.148707 -0.520741
391 1 0.909932 0.220569 0.0415514 0.488661 -3.34761 -0.0053531 0.299678 0.00193857
316 1 0.944003 0.198693 0.0447513 0.534876 -3.29541 0.549902 0.273107 0.251799
393 1 0.942485 0.221952 0.0237616 1.30168 -3.35678 0.34177 0.165324 -0.464071
314 1 0.978387 0.202862 0.024832 0.239727 -3.34808 -0.222164 0.0762264 0.332318
30716 1 0.951132 0.199489 0.00171803 0.770192 -3.31321 -0.184357 0.565836 0.00264865
324 1 0.0337289 0.252342 0.0310192 1.12832 -3.34416 -0.0312453 -0.306223 -0.173801
322 1 0.0645393 0.254545 0.0101283 0.570646 -3.24097 0.0766144 -0.453899 -0.0409453
403 1 0.0618346 0.275171 0.0322174 1.3246 -3.23467 -0.984175 0.534367 0.0476915
401 1 0.0324925 0.272825 0.00729555 1.10794 -3.318 -0.433503 0.619576 0.153657
398 1 0.00640011 0.24946 0.00529358 0.58744 -3.31987 -0.305765 0.143172 -0.170878
328 1 0.09143 0.255464 0.0345425 0.507061 -3.31387 0.336632 -0.496903 -0.198233
326 1 0.123929 0.260202 0.0131629 0.729224 -3.23259 -0.963062 0.165975 -0.131064
405 1 0.090719 0.279755 0.0120251 0.433163 -3.27513 0.306614 -0.0788565 -0.540562
407 1 0.116248 0.28089 0.0345866 0.916236 -3.30894 0.246511 0.54727 0.493397
329 1 0.152367 0.241533 0.0139174 7.14724 -3.20389 0.698604 -1.19853 0.382967
336 1 0.177843 0.241836 0.0407262 5.76332 -3.26246 -0.15182 -0.312907 0.0171893
332 1 0.147392 0.261045 0.037554 4.75901 -3.24781 -0.00579223 0.0450994 0.00884647
330 1 0.181072 0.264814 0.0169567 6.92862 -3.27525 -0.115754 -0.105827 0.410608
409 1 0.149639 0.285354 0.0156633 0.677201 -3.17468 -0.815552 -0.379273 -0.308456
411 1 0.172717 0.284799 0.0384736 5.81999 -3.26745 0.935065 0.256077 0.676584
415 1 0.206328 0.263597 0.0469757 11.3435 -3.16003 -0.0752245 0.4025 -0.77733
417 1 0.220917 0.259388 0.0166806 0.581736 -3.27719 0.172713 -0.0626581 -0.0346444
419 1 0.246965 0.259821 0.0429444 0.522478 -3.30506 0.014176 -0.225998 0.0231699
418 1 0.248433 0.28184 0.0196027 0.90669 -3.23121 0.238019 0.0613088 -0.814832
423 1 0.262305 0.252815 0.0131135 0.285595 -3.32984 -0.0986672 -0.0440288 0.0902105
428 1 0.289319 0.27702 0.0161314 0.548266 -3.27847 -0.373367 0.392618 0.175392
2025 1 0.288134 0.255667 0.0402703 0.452107 -3.3426 0.0662444 -0.041415 -0.227991
427 1 0.304368 0.249701 0.00997724 0.464317 -3.26095 -0.172191 -0.615467 0.12851
432 1 0.330206 0.274642 0.0139651 1.93594 -3.27125 0.81309 -0.284943 -0.874552