ITEM: TIMESTEP
6250
ITEM: NUMBER OF ATOMS
32000
ITEM: BOX BOUNDS pp pp pp
2.3998645799029181e+00 7.8600135420097132e+01
-1.1985847490940031e+00 8.2198584749094010e+01
-1.1902943265100987e+00 8.2190294326509957e+01
ITEM: ATOMS id type xs ys zs c_csym c_peratom fx fy fz
8 1 0.0497701 0.0245505 0.0235953 0.685597 -3.31512 0.50445 -0.129017 -0.0395875
1602 1 0.0280624 0.02629 0.0502414 1.4543 -3.25121 -0.859712 -0.29661 -0.0457959
1 1 0.00125978 1.00132 0.999173 0.856392 -3.27077 -0.00449348 -0.677834 -0.0997829
4 1 1.00262 0.0243657 0.0260909 1.01025 -3.3152 -0.256676 0.630627 -0.41546
2 1 0.0270092 0.025369 -0.00149555 0.401628 -3.28544 -0.139614 0.180479 0.263073
5 1 0.0504319 0.000935246 -0.00236105 0.587388 -3.32302 0.442057 -0.389537 0.736455
12 1 0.100821 0.0263417 0.0238379 0.321658 -3.27708 -0.0905778 -0.22205 -0.123053
1689 1 0.101731 0.0496179 0.0511797 1.2218 -3.30548 -0.668802 0.179803 -0.136229
7 1 0.0782191 1.00075 0.0237198 0.744654 -3.34469 -0.570673 -0.089457 -0.0971628
16 1 0.149912 0.0257994 0.0244995 0.215605 -3.31076 0.0522678 -0.115878 -0.184775
91 1 0.123538 0.0506556 0.024108 0.42817 -3.2862 0.541176 -0.117903 -0.0744674
93 1 0.148475 0.0501986 0.997353 0.440919 -3.37037 0.475412 -0.0788968 0.0583611
20 1 0.198326 0.0253336 0.0241917 0.452539 -3.32958 0.319306 -0.0642749 -0.0848339
95 1 0.172799 0.0496062 0.0247887 0.744346 -3.28369 0.597212 0.472056 -0.354513
24 1 0.248862 0.026348 0.025283 0.44605 -3.28349 0.23068 -0.320823 8.63098e-05
1618 1 0.225829 0.0261165 0.0492282 0.619298 -3.31483 -0.515725 -0.460672 0.0639635
1622 1 0.273189 0.0247467 0.0516636 1.22946 -3.28429 0.790964 0.597509 -0.854047
22 1 0.273575 0.0269767 0.00192548 1.18956 -3.33397 0.284166 -0.561837 -0.416648
23 1 0.274423 1.00023 0.0243447 0.514284 -3.32077 0.0886529 0.211281 0.0431139
18 1 0.224463 0.0261164 0.00103154 0.491256 -3.37823 -0.216912 -0.267688 -0.407223
28 1 0.300722 0.0248415 0.0251578 0.280322 -3.3777 -0.296597 0.107824 0.127566
1626 1 0.326427 0.0248458 0.0494522 0.242032 -3.32842 -0.435101 0.0634797 0.00794363
26 1 0.326131 0.0250432 0.000845486 0.556435 -3.30816 -0.612477 0.159138 -0.0281021
32 1 0.352333 0.0240313 0.0250956 0.718768 -3.29078 -0.517822 -0.055061 -0.177498
111 1 0.375024 0.0476983 0.024382 0.923581 -3.32199 0.0525093 0.855157 0.166421
1630 1 0.375639 0.022886 0.0491917 0.572807 -3.29843 -0.278518 0.139779 0.591549
30 1 0.377705 0.0260202 -0.00121274 2.01867 -3.29673 -0.500588 -0.526538 0.373091
1629 1 0.348529 3.24137e-06 0.0492782 0.855318 -3.28756 0.725368 -0.21481 -0.431892
31 1 0.376307 0.99851 0.0239552 0.864805 -3.31412 -0.465779 0.211851 0.563873
29 1 0.350417 0.00162158 1.00103 1.20072 -3.28714 0.304511 -0.595492 -0.156748
36 1 0.400315 0.025201 0.0255674 0.724444 -3.26167 -0.099006 -0.745311 -0.00946876
1634 1 0.425587 0.0246033 0.0510599 0.55408 -3.28806 0.0860882 -0.0463473 -0.256119
40 1 0.451984 0.0247091 0.0268445 0.619981 -3.33673 -0.314949 -0.203769 -0.123002
44 1 0.500285 0.0223334 0.0267773 1.23012 -3.26832 -0.405124 0.506082 -0.258054
39 1 0.474615 0.997626 0.0260571 0.969689 -3.29598 -0.467984 0.274194 -0.146601
37 1 0.452414 -0.00111433 -0.000328817 1.0946 -3.30444 -0.398757 0.22115 0.476296
1721 1 0.501946 0.0486278 0.048987 1.05595 -3.18608 0.1875 0.624336 0.428357
38 1 0.474943 0.0252144 0.00153948 0.446374 -3.22963 -0.332912 -0.510151 0.0809832
121 1 0.497729 0.0474499 1.00188 1.66353 -3.27585 0.999597 0.799402 -0.224004
48 1 0.54889 0.0216001 0.0271142 1.4321 -3.31453 0.448961 0.79505 -0.328983
42 1 0.52362 0.0235999 1.00093 0.429445 -3.34779 0.371106 0.311404 -0.145736
1641 1 0.496585 0.997703 0.0502917 1.96961 -3.27578 1.02561 0.458933 0.20737
41 1 0.498062 1.00046 0.00106973 0.697278 -3.32077 0.269071 -0.459524 -0.320812
43 1 0.524154 -0.000473603 0.0256698 0.421467 -3.255 0.041574 -0.546977 0.286017
1645 1 0.54922 -0.000586351 0.0519007 0.536674 -3.32205 0.305412 -0.379321 -0.317393
52 1 0.602778 0.0243927 0.027337 1.38655 -3.33158 -0.685224 -0.0289125 -0.156519
1649 1 0.601772 0.999677 0.0502631 0.692544 -3.32041 -0.478185 -0.125379 0.0757887
1650 1 0.626983 0.0247681 0.0516413 0.490008 -3.25664 -0.444528 -0.142354 -0.107878
51 1 0.626625 -0.000830145 0.0261343 0.386309 -3.31616 -0.0557121 -0.123632 -0.140563
56 1 0.649539 0.0242178 0.0266683 0.264961 -3.32149 -0.00695486 0.105963 -0.279503
1653 1 0.64978 0.998932 0.0531508 0.864076 -3.27624 -0.132686 -0.156263 -0.462321
53 1 0.64987 0.999178 1.00005 0.333847 -3.32831 -0.388801 -0.18279 0.245802
55 1 0.673967 -0.000334879 0.0255659 0.442176 -3.35907 0.117358 -0.363533 0.232578
54 1 0.673803 0.0237722 0.000159624 0.488871 -3.29735 0.282342 0.232877 0.216131
60 1 0.699526 0.0241169 0.0263215 0.357812 -3.32591 0.259813 -0.278121 -0.278528
1657 1 0.701835 0.999192 0.052175 1.43953 -3.33536 -0.46819 -0.298267 -0.759992
137 1 0.699289 0.0495904 0.999473 0.765551 -3.26294 0.387017 -0.446999 0.610167
57 1 0.700361 1.00055 0.00153358 0.66034 -3.29773 -0.136047 -0.124493 0.0204055
1658 1 0.724514 0.0254595 0.0488914 1.32501 -3.28224 0.21885 -0.421397 0.189856
64 1 0.750516 0.0229174 0.0260866 0.94012 -3.27224 -0.41404 0.522356 -0.0407298
143 1 0.774361 0.0494777 0.0259403 0.448672 -3.36048 -0.274517 0.331303 0.0214011
62 1 0.771765 0.0260855 0.000205259 1.32993 -3.29773 0.410676 -0.278076 -0.0674451
59 1 0.72556 0.998354 0.0254129 0.228753 -3.31497 -0.0802559 0.0899503 0.114578
68 1 0.799684 0.0254281 0.0245998 0.373786 -3.3352 0.139397 -0.350835 0.228966
147 1 0.824337 0.0501875 0.0252347 0.192613 -3.27924 0.258644 -0.188841 -0.102996
66 1 0.826128 0.0252127 0.999496 0.866926 -3.3622 -0.418712 -0.215815 -0.00738558
67 1 0.825429 0.998401 0.0261498 0.783307 -3.36562 -0.125519 0.299553 -0.261297
72 1 0.850427 0.0239215 0.0233901 0.753006 -3.33481 -0.122669 0.123006 0.382143
1749 1 0.848833 0.0510911 0.0502221 0.687429 -3.3337 0.175824 -0.51879 0.132126
149 1 0.850885 0.0505847 1.00116 0.943135 -3.30859 -0.37456 -0.20842 -0.542672
70 1 0.876278 0.0250805 -0.000664276 0.431903 -3.2948 -0.426732 -0.167949 0.146983
69 1 0.850758 1.00061 -0.00201163 0.654092 -3.33525 -0.0772526 -0.0196529 0.425267
76 1 0.902456 0.0224948 0.0236389 1.09283 -3.30499 -0.618519 0.588357 0.338183
1674 1 0.925486 0.0242115 0.0493084 0.446798 -3.32743 0.479946 -0.122544 -0.169185
80 1 0.952021 0.0229539 0.0243176 0.290478 -3.33931 -0.276135 0.1725 -0.0676195
159 1 0.976711 0.0492447 0.0236999 0.303766 -3.28275 -0.10396 -0.447417 -0.46682
79 1 0.977453 1.00031 0.0251767 0.750849 -3.33798 0.0382516 -0.495247 -0.151155
157 1 0.951397 0.0480654 -0.00144554 0.330913 -3.32139 0.0180982 0.123289 0.14931
83 1 0.0275423 0.0498667 0.0247421 0.708357 -3.33722 -0.44288 0.201695 -0.172088
1685 1 0.050985 0.0493086 0.0496849 0.170127 -3.25854 0.21291 0.311663 -0.0115861
1682 1 0.0248176 0.0747006 0.0495945 0.198671 -3.28514 0.456792 -0.272861 -0.166225
88 1 0.0504083 0.0754927 0.0248873 0.448073 -3.3392 -0.274342 -0.113452 -0.369617
84 1 1.00048 0.0735747 0.0236869 0.560706 -3.32717 0.154854 0.371228 -0.219419
1761 1 0.00044784 0.0973042 0.0489402 1.29163 -3.28199 -0.440565 0.531346 0.0642413
87 1 0.0746923 0.04881 0.0232594 0.605642 -3.30673 0.0678561 0.128658 0.289511
92 1 0.0983847 0.0731974 0.0240404 0.890033 -3.29088 0.466496 0.342279 -0.137584
169 1 0.0998869 0.100109 -0.000556149 0.338367 -3.32231 0.293223 -0.245271 -0.211573
96 1 0.148508 0.0746572 0.0231148 0.620029 -3.31248 0.272553 0.290015 0.488481
1690 1 0.125398 0.0741581 0.0492569 0.276949 -3.37103 0.125991 0.323474 -0.105169
90 1 0.125068 0.0751198 -0.00104994 0.258494 -3.32525 -0.173932 0.0716235 -0.245264
100 1 0.201544 0.0762165 0.0267182 1.84753 -3.27421 -0.828056 -0.303056 -0.571821
99 1 0.22285 0.0500368 0.025063 0.751796 -3.29016 0.0112641 0.0630276 -0.311481
103 1 0.273838 0.0498932 0.0265574 0.528583 -3.28145 0.537761 -0.3166 0.159066
101 1 0.250065 0.050357 8.64459e-05 0.342226 -3.283 -0.415865 0.250933 -0.11349
104 1 0.249697 0.0723111 0.0243383 2.34538 -3.28381 -0.34905 0.987116 -0.00945674
1781 1 0.247332 0.103584 0.0521564 3.30645 -3.23287 0.92128 -0.651836 -1.01575
107 1 0.327046 0.0497126 0.0267681 0.716707 -3.34067 -0.0877809 -0.0400548 -0.392807
108 1 0.299126 0.073538 0.0247184 0.772886 -3.29894 0.480444 0.385786 0.548737
1785 1 0.299176 0.0989309 0.0507335 0.256336 -3.3202 0.160715 0.341882 -0.427518
1706 1 0.325064 0.0748192 0.0510813 0.357829 -3.32102 0.0964059 0.112787 -0.350449
106 1 0.326306 0.0736815 0.00181476 0.682226 -3.29455 -0.401172 0.112811 -0.277481
105 1 0.300776 0.0496582 0.00166515 0.446554 -3.33766 0.0838413 -0.213866 -0.400973
112 1 0.350907 0.0745732 0.0249258 0.308966 -3.34032 0.210539 -0.141616 0.552584
1789 1 0.352217 0.10045 0.051104 0.916409 -3.33047 -0.228133 -0.35006 0.0802007
191 1 0.374274 0.100077 0.0262535 0.461273 -3.34685 0.443308 -0.0552312 -0.179969
189 1 0.349382 0.0994541 0.000911791 0.26462 -3.32207 0.225293 0.0846529 0.0756693
115 1 0.424729 0.047642 0.0253613 0.810891 -3.29659 0.276725 0.654619 0.382601
116 1 0.399843 0.0743126 0.0262927 0.157276 -3.33218 0.116923 -0.0932968 -0.242727
1793 1 0.400064 0.0985109 0.0524057 0.728749 -3.29428 0.194412 0.495832 -0.355499
119 1 0.475501 0.0498775 0.0272426 0.603847 -3.25889 -0.132187 -0.0287684 -0.542573
120 1 0.450347 0.0751337 0.0257932 0.324401 -3.37219 -0.0791529 -0.125265 0.0408419
124 1 0.501367 0.0737441 0.0242677 0.521898 -3.30333 -0.104343 0.276695 -0.0840971
123 1 0.525461 0.0490686 0.0250275 0.289377 -3.34721 0.346761 -0.22997 -0.168231
1725 1 0.551716 0.0499379 0.0513654 0.690844 -3.33089 -0.405324 -0.236885 -0.178865
1722 1 0.52554 0.0750135 0.0487461 0.440144 -3.34233 0.0769042 -0.213548 0.510152
203 1 0.526153 0.0994594 0.025381 0.449668 -3.32282 0.0818773 -0.0241169 -0.259779
128 1 0.551007 0.0735625 0.0249337 0.619752 -3.31625 0.0405204 0.322342 -0.0253067
125 1 0.55133 0.0477548 1.0013 1.07849 -3.31782 -0.322424 0.155307 0.0533946
127 1 0.575344 0.049524 0.025837 0.372175 -3.28805 0.0422852 -0.366374 0.273407
1729 1 0.599734 0.0487303 0.0520034 0.734375 -3.33358 0.364958 -0.0270731 -0.317495
132 1 0.60042 0.0756216 0.0248289 0.574162 -3.34313 -0.52319 -0.17186 -0.0324461
126 1 0.572988 0.0763296 0.997624 2.28089 -3.3418 0.249798 -0.253339 0.609299
131 1 0.624909 0.051077 0.0259667 0.700863 -3.34559 -0.31205 -0.300101 0.0513356
211 1 0.623604 0.101013 0.0262294 1.02708 -3.30569 0.704834 -0.309175 -0.176117
136 1 0.650412 0.0731598 0.0266755 0.412298 -3.28949 -0.30651 0.244109 -0.0108969
135 1 0.676192 0.0468333 0.0262298 1.18139 -3.30605 -0.614686 0.581925 -0.0626588
1734 1 0.674536 0.0728313 0.0509095 0.377628 -3.31177 -0.0183809 0.189684 -0.0679133
140 1 0.701072 0.0726385 0.0239625 1.22714 -3.33266 -0.213206 0.353642 0.299689
139 1 0.727049 0.0498563 0.0263278 1.35873 -3.34791 -0.141294 -0.125515 -0.311832
141 1 0.749576 0.051268 1.00059 0.942622 -3.27244 0.0114703 -0.24275 0.20931
144 1 0.748831 0.0771955 0.0237114 1.91739 -3.31206 0.312767 -0.577879 0.0825275
1742 1 0.774567 0.0737515 0.0507921 0.456433 -3.35733 -0.105906 0.130219 -0.317233
145 1 0.799419 0.0490165 0.00168553 0.828507 -3.32832 -0.0181884 0.301565 -0.532985
148 1 0.80043 0.0749895 0.0247346 0.267158 -3.3487 -0.0491204 0.0355696 0.089852
225 1 0.799339 0.100455 1.00001 0.422139 -3.28627 0.469244 -0.187097 0.312465
227 1 0.826906 0.0996342 0.0266351 0.851182 -3.30779 -0.481498 0.0849905 -0.374967
1746 1 0.823993 0.0751154 0.0504986 0.30056 -3.32297 0.148421 -0.00609214 0.273402
1825 1 0.801338 0.100308 0.0510885 0.419383 -3.28566 -0.620307 -0.227917 -0.182305
151 1 0.874952 0.0487758 0.024221 0.230503 -3.33624 0.116479 -0.108479 0.462685
152 1 0.849083 0.0743246 0.0258444 0.358052 -3.32576 0.465243 -0.00307945 -0.154693
1750 1 0.875531 0.0732685 0.0516349 0.413222 -3.27199 -0.329073 -0.0691102 -0.310755
150 1 0.876293 0.0738546 -0.000982514 0.737455 -3.3271 -0.0267206 -0.0722034 0.309539
155 1 0.927983 0.047099 0.0229252 1.3553 -3.30851 -0.400368 0.445621 0.272138
156 1 0.899027 0.0726026 0.0266079 1.22154 -3.2916 0.34572 0.193622 -0.743776
235 1 0.926253 0.099492 0.0239436 0.791208 -3.29921 0.00828764 -0.646762 0.202862
1754 1 0.925061 0.074065 0.0482526 0.560855 -3.35285 0.518556 -0.0780887 0.171015
153 1 0.901489 0.0481205 0.000311723 0.539224 -3.29322 0.0489508 0.303228 -0.0126295
160 1 0.95322 0.0751167 0.0236602 1.14524 -3.28175 -0.793185 -0.170952 -0.0196142
1758 1 0.975827 0.0736906 0.0481531 0.429898 -3.24525 -0.149646 0.547355 0.53985
163 1 0.0245743 0.100727 0.0246448 0.435391 -3.33719 0.200937 -0.469529 -0.310741
168 1 0.0506052 0.123771 0.0241956 0.231298 -3.33087 -0.172691 -0.21981 0.0853827
1762 1 0.0249998 0.122842 0.0499779 0.643887 -3.35355 0.220283 0.313187 0.00248059
167 1 0.0762875 0.09811 0.0242258 0.833276 -3.29625 -0.340716 0.505517 0.157946
172 1 0.0991819 0.124943 0.0241939 0.301631 -3.2908 0.121461 -0.0542229 0.116039
171 1 0.123388 0.100455 0.0243247 0.306891 -3.33943 -0.169705 -0.53517 0.205448
176 1 0.147544 0.123586 0.0243837 0.979956 -3.27629 0.644492 0.570698 0.0928362
251 1 0.124505 0.149546 0.0243911 0.304226 -3.31891 0.207801 0.311243 0.476928
173 1 0.148745 0.100812 -0.000343687 0.506316 -3.31233 0.251445 -0.384064 -0.184176
170 1 0.124488 0.125792 -0.000668234 0.373016 -3.22153 0.238221 -0.438364 -0.127552
175 1 0.175419 0.101747 0.0247504 0.73687 -3.30448 -0.47675 -0.634128 0.0665087
179 1 0.223244 0.101036 0.0237917 1.02765 -3.26819 0.629633 -0.0510732 0.0539119
180 1 0.198094 0.125823 0.0261777 0.75178 -3.29243 0.352704 0.25374 -0.417051
1774 1 0.173868 0.124736 0.049683 0.491382 -3.34783 0.19257 0.375394 0.356047
183 1 0.27332 0.0979499 0.0256049 1.28185 -3.35629 0.208805 0.358072 0.185019
184 1 0.250441 0.124078 0.0242324 1.07577 -3.32394 -0.0948768 0.409358 0.672817
182 1 0.275969 0.125245 1.00181 0.638762 -3.30403 0.0684428 0.182892 -0.497412
178 1 0.225455 0.125466 1.00044 0.276481 -3.32243 -0.429008 -0.0469593 -0.368499
187 1 0.325835 0.0993413 0.0272961 0.640958 -3.32668 -0.143313 -0.372673 -0.380307
188 1 0.299646 0.124891 0.0256989 0.315777 -3.29345 -0.134103 -0.364031 0.100185
1865 1 0.301234 0.150035 0.0487976 0.6074 -3.2969 -0.0435316 0.104124 0.327224
1786 1 0.325275 0.123254 0.0486777 0.971174 -3.29184 0.0064143 0.558137 0.545917
265 1 0.299693 0.152335 1.00106 1.12931 -3.3329 -0.171883 -0.57007 -0.222791
186 1 0.324907 0.123501 0.00263906 1.18025 -3.28388 -0.0477393 0.398165 -0.533076
192 1 0.350575 0.12519 0.0248607 0.512975 -3.29297 0.189534 -0.0906594 0.416343
190 1 0.376005 0.125022 0.00147489 0.368016 -3.31119 -0.0955357 -0.592392 -0.108941
195 1 0.42495 0.100182 0.0268724 0.418394 -3.35657 0.166148 0.0440919 -0.168885
196 1 0.399611 0.126103 0.027492 0.75537 -3.33195 0.29999 -0.612274 -0.335178
1873 1 0.402173 0.149404 0.0505802 0.393309 -3.27244 -0.668388 0.313626 0.213886
194 1 0.423949 0.124022 0.000417502 0.54105 -3.29302 0.0475358 0.169083 0.271807
1797 1 0.450125 0.0993132 0.0502058 0.688927 -3.25314 0.286297 0.0432428 -0.373727
199 1 0.47348 0.10054 0.0238254 1.29348 -3.28201 0.588819 -0.446306 0.226405
1801 1 0.500769 0.0987969 0.0479386 0.759293 -3.33263 -0.303457 0.282342 0.420552
200 1 0.451543 0.126308 0.0220195 2.31687 -3.30004 -0.610441 0.0107432 0.597788
1798 1 0.474919 0.123893 0.046556 1.71502 -3.30625 0.14678 0.156781 0.797592
1805 1 0.551799 0.100443 0.0504164 0.618386 -3.29478 -0.324633 -0.345821 0.0218542
204 1 0.500826 0.124293 0.0240374 0.359121 -3.31355 0.0856284 -0.0581015 0.0660358
283 1 0.524756 0.150059 0.0247982 0.670791 -3.31111 0.532608 -0.0675351 -0.272392
1802 1 0.524914 0.126339 0.0490028 1.17888 -3.3215 0.430535 -0.814754 0.26189
208 1 0.550162 0.123791 0.0235958 0.979304 -3.28612 -0.37942 0.667518 0.145141
207 1 0.57394 0.101347 0.0257923 1.30953 -3.2804 0.607605 -0.86501 -0.530816
1809 1 0.599211 0.100782 0.0507941 0.677672 -3.32966 0.14959 -0.157569 -0.237757
1806 1 0.574398 0.125534 0.0484669 1.02966 -3.25836 0.44915 -0.148005 0.269047
212 1 0.600114 0.124507 0.0236942 0.629751 -3.28054 -0.0266582 0.0791562 0.332981
1813 1 0.648669 0.0985566 0.0514051 0.478268 -3.26625 0.517529 0.370025 0.00197865
291 1 0.625155 0.146688 0.0245584 1.02712 -3.20939 0.14882 0.533665 0.187415
1810 1 0.626842 0.124245 0.0507889 1.04857 -3.30868 -0.405505 -0.169603 0.155663
216 1 0.650168 0.125201 0.0250938 0.75814 -3.30452 0.423834 -0.605787 0.0824246
215 1 0.673728 0.0985925 0.0272761 0.712623 -3.31921 -0.102544 -0.0545228 -0.450518
1817 1 0.698973 0.0981525 0.0495102 0.630491 -3.26747 0.227686 0.18533 0.248094
217 1 0.697025 0.0982872 1.00161 1.25263 -3.34489 0.217028 0.0297125 -0.146975
1814 1 0.674209 0.122762 0.051297 0.590082 -3.35257 -0.0183003 0.447618 0.0185499
220 1 0.698257 0.123715 0.0258104 0.40288 -3.34395 0.258904 0.207022 -0.198515
219 1 0.723921 0.100215 0.0262902 0.885123 -3.32004 0.00411304 0.211329 -0.558343
223 1 0.776815 0.0993574 0.0259982 0.690271 -3.32486 -0.343317 0.224393 -0.0865437
224 1 0.750573 0.124884 0.0249513 0.358164 -3.32214 -0.566099 -0.601162 0.00165345
1901 1 0.748014 0.150133 0.0496779 0.553305 -3.31779 0.134927 -0.0563394 -0.00312525
228 1 0.801372 0.124559 0.0263081 0.405599 -3.30837 -0.324823 -0.0466031 -0.336514
307 1 0.824627 0.149559 0.0287914 1.67162 -3.26735 0.357122 0.231623 -0.956197
1826 1 0.824691 0.124371 0.0500628 0.488715 -3.27353 0.606137 0.17066 0.347461
226 1 0.823507 0.124952 0.99951 1.41452 -3.26986 0.576837 -0.089212 0.379431
231 1 0.875621 0.0978437 0.0269659 0.736376 -3.28738 -0.544164 -0.0370873 -0.386535
229 1 0.851132 0.100044 1.00187 0.606818 -3.35694 -0.0193758 -0.116807 -0.470145
232 1 0.850351 0.124965 0.0246127 0.917664 -3.30626 -0.428784 0.152713 -0.0680126
233 1 0.89934 0.0984486 0.00137339 0.696557 -3.30321 0.132619 -0.147113 -0.358242
236 1 0.90061 0.120807 0.0251544 2.11296 -3.25854 -0.0810266 0.92915 0.318984
315 1 0.92433 0.150181 0.0237284 0.7804 -3.35506 -0.349196 -0.115492 0.511564
239 1 0.974854 0.100429 0.023296 0.535718 -3.32136 -0.0316451 -0.228808 0.0484515
1837 1 0.950123 0.0986846 0.0498808 0.58262 -3.3284 0.0263636 -0.274071 -0.0389948
164 1 -0.00104165 0.123254 0.0252996 0.59969 -3.2816 0.176914 0.321639 -0.234759
240 1 0.94818 0.124606 0.0242629 0.399331 -3.27067 0.156162 0.00293029 -0.268244
319 1 0.973848 0.148202 0.023607 0.869636 -3.31251 0.0907543 0.262655 0.31926
243 1 0.0251217 0.148372 0.0248927 0.44215 -3.33399 -0.0680075 0.176718 0.339665
248 1 0.0496237 0.173291 0.0247392 0.228763 -3.34202 -0.104361 0.292234 0.325079
244 1 -0.00324994 0.17641 0.0229268 2.61887 -3.30167 0.80823 -0.398379 0.168081
1925 1 0.049093 0.198652 0.0480342 0.686894 -3.33042 0.188192 -0.172556 0.322766
247 1 0.0737871 0.147837 0.0249076 0.810955 -3.30107 0.457668 0.582675 0.155437
252 1 0.100909 0.175698 0.0247898 0.464822 -3.34091 -0.357738 -0.494997 0.196461
327 1 0.0744627 0.19986 0.0236377 0.463351 -3.28686 -0.186754 -0.357309 0.532193
249 1 0.101569 0.149214 1.00006 0.413071 -3.30867 -0.597268 0.566177 -0.301353
246 1 0.0747326 0.173185 0.00136452 0.869879 -3.32432 0.364746 -0.078504 -0.464878
329 1 0.0995923 0.198677 0.000297476 0.434163 -3.25997 0.436598 0.0891653 -0.0741387
256 1 0.150712 0.177396 0.0255949 1.00923 -3.34517 0.0615869 -0.344985 -0.00714679
331 1 0.124103 0.200689 0.0260049 0.482119 -3.27936 0.443419 0.0258586 -0.23178
253 1 0.149184 0.149365 0.00094025 0.694933 -3.31588 0.267241 0.279265 -0.343226
250 1 0.126442 0.176147 0.00087818 0.659501 -3.32052 -0.178589 -0.353513 -0.269338
255 1 0.172974 0.150523 0.0259908 0.588505 -3.33 0.073257 -0.0978341 -0.240382
257 1 0.199873 0.149677 0.00195761 1.54746 -3.27234 -0.545553 -0.085779 -0.931691
260 1 0.198679 0.174938 0.0228145 1.07778 -3.32447 0.00227623 0.0413977 0.585635
1854 1 0.17424 0.175165 0.0510463 0.472764 -3.30687 -0.101165 0.38081 -0.416224
337 1 0.199804 0.200113 0.998838 0.41162 -3.30663 0.13582 0.179737 0.158217
254 1 0.173796 0.175758 -0.00133029 0.77784 -3.28794 0.363143 -0.35746 0.538505
259 1 0.224239 0.149571 0.0236426 1.00854 -3.30166 0.665175 0.380793 0.777136
1861 1 0.250606 0.151444 0.0509808 0.456734 -3.29309 0.063054 -0.411907 -0.437629
263 1 0.27527 0.149679 0.0264051 0.64957 -3.33439 -0.169373 0.325539 -0.232325
264 1 0.25182 0.177146 0.0257946 0.925996 -3.35745 -0.36234 -0.557717 -0.0482613
339 1 0.222735 0.199836 0.0254855 1.21309 -3.30017 0.726222 0.118091 -0.369193
1858 1 0.227031 0.175316 0.050518 0.976962 -3.3318 -0.589316 0.0605287 -0.31073
1941 1 0.250444 0.200686 0.0521628 0.448961 -3.33668 0.00381396 0.00509074 -0.273797
343 1 0.275916 0.201344 0.0257268 0.330449 -3.24401 -0.483982 -0.446799 0.275239
1862 1 0.27671 0.175089 0.0507619 0.23229 -3.3058 -0.19989 -0.0338956 -0.0751387
262 1 0.276632 0.17759 1.00043 0.63961 -3.27486 -0.303616 -0.447493 0.00881544
267 1 0.325036 0.148529 0.0243557 0.919705 -3.30669 0.301031 0.408981 0.257904
268 1 0.300302 0.176855 0.0248479 0.743691 -3.3191 0.128671 -0.373059 0.28682
1866 1 0.327196 0.174108 0.0483202 1.34278 -3.33097 -0.478526 0.346995 0.431864
271 1 0.37522 0.149879 0.0261612 0.277387 -3.23941 0.470758 -0.0091321 0.163756
272 1 0.352432 0.174338 0.0252334 0.333746 -3.27844 -0.207678 0.455669 -0.296707
349 1 0.351446 0.200131 0.000398221 0.232948 -3.38538 0.305152 -0.168279 0.0725926
1870 1 0.375791 0.176061 0.0496679 0.597655 -3.32025 0.288272 -0.125103 0.517752
275 1 0.425528 0.150313 0.0270465 0.842057 -3.30325 0.318078 -0.131818 -0.644213
276 1 0.400592 0.175331 0.0265354 0.393968 -3.3569 0.298299 -0.12396 -0.180343
1953 1 0.403116 0.201642 0.0508623 0.983187 -3.27057 -0.24797 -0.67152 0.0626122
355 1 0.425883 0.200496 0.0258697 0.375838 -3.27794 0.229828 -0.206573 -0.0559615
279 1 0.475651 0.151601 0.0245947 1.13897 -3.32989 -0.255144 -0.36028 0.0672789
280 1 0.449562 0.176167 0.0241985 1.3464 -3.28419 0.092695 -0.693347 0.244162
1957 1 0.450655 0.199102 0.0506799 0.266075 -3.32239 0.197567 -0.0949216 0.106924
1878 1 0.475074 0.17401 0.052757 1.5196 -3.35921 0.360636 0.0666723 -0.602282
284 1 0.50014 0.174864 0.023479 0.767081 -3.22304 0.553057 -0.154204 0.483764
359 1 0.475416 0.197022 0.0255585 1.03251 -3.28138 0.133465 0.571326 0.104875
1881 1 0.501245 0.148669 0.0487874 0.626839 -3.27012 -0.491498 0.453878 0.2829
1885 1 0.550941 0.149215 0.050591 0.682846 -3.30717 -0.365026 0.541685 -0.205195
1961 1 0.500071 0.201244 0.0518118 1.37926 -3.31836 0.176577 -0.678429 -0.167609
1882 1 0.523949 0.175221 0.0475521 2.50052 -3.29641 0.409136 -0.308015 0.967654
288 1 0.552404 0.173414 0.0247744 0.364374 -3.30716 -0.340234 0.190035 0.109164
287 1 0.575604 0.149245 0.0256832 0.681074 -3.26559 0.496729 -0.109448 -0.0880015
1889 1 0.602559 0.148412 0.0496712 1.19886 -3.27697 -0.479337 0.098517 -0.117232
367 1 0.576089 0.198781 0.0241625 0.310533 -3.34297 0.267703 0.0841459 0.177215
1886 1 0.578507 0.174385 0.0491117 0.910849 -3.3595 -0.195897 0.150506 0.177083
292 1 0.602637 0.172524 0.0237772 1.25226 -3.32458 0.037372 0.418616 0.175766
1969 1 0.602078 0.203243 0.0486588 2.7037 -3.28201 -0.323225 -0.860932 0.480719
1893 1 0.648679 0.148939 0.0527105 1.34169 -3.2889 0.434441 0.120318 -0.557858
371 1 0.626136 0.198244 0.0254619 0.75163 -3.36853 0.26871 0.0236563 -0.309544
1890 1 0.624658 0.174123 0.050513 0.496967 -3.3036 -0.0761741 0.222457 -0.22086
296 1 0.650021 0.172232 0.0249962 0.781295 -3.34987 -0.177651 0.457015 -0.118661
295 1 0.675635 0.149435 0.024208 0.493005 -3.30954 0.131051 -0.0338995 0.363738
1897 1 0.701628 0.14899 0.0493838 0.539086 -3.37349 -0.305392 0.200252 0.117598
1894 1 0.674344 0.173534 0.0494185 0.725103 -3.34943 0.61321 -0.197416 0.117157
300 1 0.702511 0.174642 0.0244226 0.889239 -3.2865 -0.802128 0.0817964 0.145737
299 1 0.725667 0.149674 0.0237886 0.494362 -3.30403 -0.122467 -0.302674 0.178846
303 1 0.773713 0.147884 0.0250222 1.48905 -3.28262 0.654995 0.929852 0.397599
1898 1 0.725161 0.176594 0.0495104 0.575789 -3.32297 0.126916 -0.312972 0.347074
304 1 0.750271 0.17753 0.0247328 1.33198 -3.28986 -0.376922 -0.615821 -0.176004
1981 1 0.750615 0.201182 0.0518857 1.0781 -3.33269 -0.201333 -0.196623 -0.311314
1902 1 0.77273 0.174028 0.0493201 0.968096 -3.31554 0.255519 -0.0838449 0.453442
305 1 0.801707 0.150812 1.00202 0.83552 -3.35569 -0.32134 -0.0268162 -0.129998
308 1 0.799221 0.176187 0.0265273 0.802896 -3.31611 0.148619 -0.495577 -0.294446
1906 1 0.823965 0.174299 0.050723 0.45341 -3.30417 0.103526 0.525637 0.23638
311 1 0.878485 0.148681 0.0244085 2.55304 -3.29927 -0.777551 0.171151 0.406908
309 1 0.847372 0.150173 1.00132 1.83986 -3.32564 0.483253 -0.205489 0.287635
312 1 0.851203 0.174903 0.0274054 1.09327 -3.30516 -0.228471 -0.262564 -0.851064
1910 1 0.87393 0.174905 0.05059 0.557159 -3.28827 0.585386 0.231375 0.357595
310 1 0.875417 0.173253 1.00195 1.36653 -3.31532 -0.542993 0.665714 -0.230128
1913 1 0.900836 0.149455 0.0494161 0.398464 -3.34307 -0.00639567 -0.0754523 -0.0394783
314 1 0.924856 0.175409 0.00179036 0.695167 -3.31352 -0.037279 -0.024215 -0.133735
316 1 0.89909 0.177182 0.0260916 1.41631 -3.26525 0.12857 -0.588878 0.106268
320 1 0.95105 0.174434 0.0263789 0.947359 -3.29109 -0.456574 0.0654236 -0.0965622
318 1 0.972467 0.174903 1.00071 0.725422 -3.27042 0.392389 -0.0835349 -0.490828
397 1 0.949282 0.20045 -0.000588612 0.574189 -3.27815 -0.398741 -0.00548285 0.433128
323 1 0.0251218 0.200229 0.0251242 1.00274 -3.32869 -0.0509235 -0.505173 -0.617023
325 1 0.0512937 0.197966 0.997932 1.16231 -3.30058 -0.489781 0.208573 0.43247
328 1 0.0504588 0.225417 0.0224293 0.922266 -3.32971 -0.138161 -0.0818242 0.445184
403 1 0.024034 0.25019 0.0241648 0.34093 -3.30211 -0.0915535 -0.545461 0.324123
322 1 0.0242775 0.223657 -1.88486e-05 0.432817 -3.32103 0.253081 0.329441 0.0303201
321 1 -1.6446e-05 0.1995 -0.00215134 1.21505 -3.30777 -0.397334 -0.192298 0.721171
332 1 0.09944 0.223548 0.0245342 0.430314 -3.32785 0.07919 0.571662 0.210178
326 1 0.0754976 0.222117 0.999691 0.885921 -3.24726 -0.302592 0.636683 -0.272436
336 1 0.149517 0.225728 0.0236388 0.262985 -3.29764 0.16453 -0.353354 0.262507
2013 1 0.150643 0.250368 0.0467905 1.47417 -3.28089 -0.274682 -0.073878 0.662281
330 1 0.126403 0.2249 -0.000711226 0.552394 -3.33652 -0.539058 -0.0611093 -0.0132428
333 1 0.149785 0.199966 1.00088 0.632379 -3.31549 0.142925 0.35341 -0.287845
335 1 0.177066 0.202953 0.0241544 2.07918 -3.30093 -0.58456 -0.638157 0.0106838
1937 1 0.200095 0.199559 0.048169 0.930299 -3.29604 -0.266134 0.0419009 0.935176
340 1 0.200441 0.226799 0.0252011 0.469496 -3.28204 0.24444 -0.0403812 -0.0996279
344 1 0.249571 0.224565 0.0281668 1.349 -3.28904 -0.0132798 0.00220065 -0.664518
419 1 0.225937 0.250346 0.0254029 0.404872 -3.35593 0.0270115 0.339477 0.149434
1938 1 0.225379 0.226347 0.0515944 0.691296 -3.29 -0.601143 -0.335835 -0.049234
2021 1 0.250378 0.248733 0.0522829 1.46853 -3.28006 -0.0311381 1.00351 -0.409537
421 1 0.249779 0.252241 -0.000397419 0.697699 -3.33063 0.0901623 -0.338082 0.244111
423 1 0.27486 0.250402 0.0240486 0.663171 -3.35016 -0.393979 0.267267 0.512554
1945 1 0.300116 0.199027 0.0510002 0.603335 -3.32286 0.248631 0.263819 0.0650953
347 1 0.326809 0.200739 0.0252242 0.502269 -3.32691 -0.0644849 -0.283614 -0.0702304
348 1 0.299128 0.223614 0.025694 0.802653 -3.22011 0.828278 0.622919 0.169781
427 1 0.324105 0.248499 0.0259935 0.871776 -3.33229 0.554064 -0.147884 -0.446363
1946 1 0.323975 0.223281 0.0498281 1.13615 -3.32985 0.235345 0.413934 0.262323
425 1 0.300128 0.250371 0.00124842 0.512541 -3.32996 0.123195 -0.404195 -0.704597
351 1 0.377213 0.200268 0.02616 0.280604 -3.33848 -0.226662 0.105518 -0.303749
352 1 0.351732 0.225471 0.0254204 0.355544 -3.37872 0.069146 0.146475 -0.0911293
431 1 0.37873 0.250241 0.0251513 0.633909 -3.36531 -0.393751 0.00739345 -0.0427469
1950 1 0.37943 0.227017 0.0493275 1.54021 -3.26591 -1.10784 -0.354512 0.501726
356 1 0.402156 0.224379 0.0270252 0.470405 -3.20905 0.22261 0.184207 -0.794846
1954 1 0.428417 0.223879 0.0515029 0.71655 -3.32447 0.0218671 0.414 0.138985
360 1 0.454238 0.224325 0.0254346 1.33082 -3.32004 -0.402266 -0.0279171 0.116348
364 1 0.500215 0.222222 0.0262251 0.934178 -3.31968 0.198359 0.213665 -0.11455
1958 1 0.475108 0.224783 0.051363 0.592103 -3.2891 0.104822 0.107265 0.155619
363 1 0.527599 0.197957 0.0262654 1.29205 -3.30141 -0.29766 0.453985 -0.840868
1965 1 0.552276 0.199227 0.0489594 0.830907 -3.28862 -0.14237 -0.181842 0.382574
2041 1 0.501961 0.249289 0.0499518 0.771596 -3.27602 -0.298361 -0.127518 0.646857
1962 1 0.526961 0.222614 0.050269 1.25215 -3.30379 -0.160931 0.473647 -0.0807153
368 1 0.55041 0.225672 0.0233361 1.07361 -3.31923 -0.0510548 -0.187182 0.344691
365 1 0.552403 0.198066 0.999303 0.748892 -3.28825 -0.720102 0.335864 0.531707
1966 1 0.57524 0.224158 0.0482672 0.625429 -3.31666 -0.0395734 0.361136 0.260473
372 1 0.602605 0.224141 0.0234076 0.9355 -3.32033 -0.0992498 0.205793 0.401631
1973 1 0.651265 0.197895 0.0511586 0.752468 -3.25513 -0.405208 0.449059 -0.453901
1970 1 0.626801 0.225851 0.0509339 0.66727 -3.27363 0.135311 -0.584078 0.230563
376 1 0.649211 0.225979 0.0253727 1.06786 -3.32977 0.18263 -0.724281 0.0536691
375 1 0.675681 0.200109 0.0267971 0.54423 -3.36891 0.122936 -0.0660211 -0.22435
377 1 0.699141 0.200897 0.000557025 0.335631 -3.35441 -0.0140331 -0.0276466 0.227732
380 1 0.701833 0.226041 0.0259655 1.32006 -3.27518 -1.12254 -0.264354 -0.495503
379 1 0.724227 0.200616 0.0254196 0.488492 -3.32169 0.262069 0.105606 -0.103993
383 1 0.775038 0.199755 0.0257557 0.356304 -3.27752 0.0362284 0.58228 -0.295441
1978 1 0.724445 0.226805 0.0483884 1.3456 -3.29582 0.641964 -0.304021 0.908572
384 1 0.751395 0.22518 0.0242153 1.0498 -3.2746 -0.529405 -0.275302 0.350891
1982 1 0.772473 0.226503 0.0499578 1.28334 -3.33126 0.649164 0.0539921 0.207104
382 1 0.77672 0.2256 -0.000399656 0.553949 -3.30305 -0.203327 -0.304897 0.0551274
387 1 0.826139 0.199056 0.0244882 0.853734 -3.26536 -0.84135 -0.0851922 0.26297
1985 1 0.79672 0.198749 0.0511089 1.24632 -3.34403 0.657852 0.449142 0.108013
388 1 0.801016 0.224578 0.0240981 0.79296 -3.35279 -0.352811 -0.067381 0.70211
385 1 0.800846 0.199644 0.999476 0.285397 -3.30543 -0.0663144 0.122583 0.268043