ITEM: TIMESTEP
8500
ITEM: NUMBER OF ATOMS
32000
ITEM: BOX BOUNDS pp pp pp
3.3142678299852486e+00 7.7685732170014802e+01
-1.6679434584235580e+00 8.2667943458423608e+01
-1.6671654437905588e+00 8.2667165443789969e+01
ITEM: ATOMS id type xs ys zs c_csym c_peratom fx fy fz
8 1 0.0499321 0.0263808 0.0248324 0.2324 -3.25287 -0.0473804 -0.136791 0.326647
1605 1 0.050994 -0.000912979 0.0486704 0.748741 -3.3161 -0.171968 0.350448 0.231636
1602 1 0.023715 0.0242325 0.0496025 0.704087 -3.24669 0.841585 0.449498 -0.521157
1685 1 0.0496257 0.0499733 0.0521261 0.829644 -3.26744 0.175048 0.0742559 -0.691986
12 1 0.100713 0.0273936 0.0266921 0.903564 -3.3011 0.173642 -0.439287 -0.238939
87 1 0.0764949 0.0506955 0.0267324 0.764578 -3.25913 -0.845464 0.0173642 -0.365658
1606 1 0.0728413 0.0251689 0.0495972 0.966223 -3.29442 0.595991 -0.224861 0.175505
1609 1 0.101992 1.51384e-05 0.0506933 0.768315 -3.35249 -0.539833 0.0938217 -0.302633
6 1 0.0743578 0.0265834 0.00152582 0.708648 -3.30153 0.495665 0.0194594 -0.287241
16 1 0.1517 0.0267538 0.0279747 1.1104 -3.24696 -0.876684 -0.166379 -0.460336
1610 1 0.12519 0.0261505 0.0513303 0.181899 -3.3223 0.231769 -0.136195 -0.274865
11 1 0.125989 0.00187974 0.0254262 0.775 -3.30376 -0.0741482 -0.0495097 0.363293
91 1 0.126763 0.051703 0.0259617 0.707475 -3.32591 -0.307868 -0.143767 0.186495
15 1 0.173463 0.000486366 0.0273864 0.83399 -3.31085 0.589314 -0.00766858 -0.718491
1613 1 0.150508 -9.61575e-05 0.0508636 0.309609 -3.33658 -0.371849 0.079084 0.337126
1614 1 0.174645 0.0266991 0.0512148 0.448358 -3.23702 0.0940332 -0.415037 0.116876
20 1 0.200817 0.024792 0.0267896 0.370707 -3.33973 -0.0934075 0.044539 0.119803
1618 1 0.225607 0.0269962 0.0532183 1.14802 -3.27318 -0.0649247 -0.442417 -0.67572
1697 1 0.201402 0.0497362 0.0501876 0.568532 -3.25272 0.0310836 0.547646 -0.207633
24 1 0.251237 0.0271598 0.0258131 0.179697 -3.28651 0.233366 -0.0761308 0.0551993
23 1 0.273962 0.00139202 0.0261872 0.702438 -3.28962 0.18162 0.108517 0.0913676
103 1 0.275456 0.0513684 0.0251117 0.215674 -3.29941 0.040344 -0.147321 -0.188021
1622 1 0.274265 0.0263172 0.0521209 0.649975 -3.31351 0.29828 -0.117624 -0.514417
22 1 0.276469 0.0272907 -0.0015357 0.955536 -3.26727 -0.38136 -0.169929 0.417323
21 1 0.251186 0.00196374 0.000560501 0.64378 -3.37049 0.0530318 -0.308743 -0.303272
28 1 0.299864 0.0261837 0.0236841 0.531103 -3.3016 -0.502174 0.0562187 0.348205
32 1 0.349427 0.0256943 0.0242145 0.328872 -3.32853 -0.202459 -0.214062 -0.0418802
25 1 0.295235 -2.11969e-05 0.000245985 2.42262 -3.251 0.472602 0.171329 -0.122589
26 1 0.322285 0.0255798 -0.00117442 0.553291 -3.27376 0.478302 -0.226933 0.216631
29 1 0.346892 -0.000368518 -3.49915e-05 0.534216 -3.32771 0.807399 0.203259 -0.178955
30 1 0.372647 0.024264 -0.000376302 0.442497 -3.35873 0.32249 -0.244159 -0.151683
36 1 0.399029 0.0247781 0.0255145 0.361707 -3.3224 -0.120672 -0.0707541 -0.487133
113 1 0.398785 0.0475573 -0.000600012 1.29211 -3.29726 0.083891 0.432002 0.178513
35 1 0.425098 0.00151625 0.025374 0.689851 -3.33417 0.0726549 -0.40414 -0.329863
40 1 0.449737 0.0254799 0.025513 0.299126 -3.26806 -0.383125 -0.418754 -0.17562
115 1 0.423923 0.0497137 0.0259863 0.464652 -3.32826 0.0034109 0.228368 -0.355186
34 1 0.423359 0.0243485 0.000217085 0.439572 -3.33021 0.313971 0.0453398 0.131947
44 1 0.501718 0.0214544 0.0259426 1.96423 -3.23026 -0.39684 1.06646 0.0494296
119 1 0.474071 0.047717 0.0272887 1.43874 -3.24023 0.569633 0.138359 -0.520244
123 1 0.52499 0.0490586 0.0249659 0.65963 -3.33588 -0.26029 0.00404501 0.640084
1721 1 0.497702 0.0478393 0.0504696 0.805461 -3.29814 1.03991 0.205836 -0.0243754
42 1 0.524678 0.0230963 0.000513083 0.50848 -3.28674 -0.222594 0.163466 -0.337301
48 1 0.549219 0.0249511 0.0271027 0.676953 -3.27976 -0.131996 0.0437012 -0.241479
1646 1 0.574467 0.0231125 0.0498873 0.832814 -3.24644 0.498217 0.674312 0.487107
1725 1 0.550363 0.0482292 0.0530127 1.09268 -3.291 -0.053353 0.282953 -0.95907
52 1 0.59922 0.0245928 0.0258487 0.387299 -3.25584 0.411342 0.0963478 0.180183
50 1 0.623773 0.0222373 0.00191834 1.24115 -3.31572 -0.230655 0.485962 -0.237752
129 1 0.600629 0.0501239 0.00193951 0.872794 -3.33723 -0.1813 -0.438467 -0.215977
56 1 0.651303 0.02403 0.0268244 0.798679 -3.36813 -0.231304 0.255756 -0.0514826
1653 1 0.650556 -0.00256424 0.0496123 1.681 -3.28897 -0.217352 0.933224 0.347109
60 1 0.696744 0.026872 0.0280302 1.86931 -3.24364 0.758709 -0.405747 -0.148259
135 1 0.674795 0.0507665 0.0253136 0.801303 -3.27746 -0.751333 0.0205111 0.0214649
137 1 0.699336 0.0489683 0.00127107 0.579041 -3.24006 -0.315534 0.448844 -0.115193
1657 1 0.696874 -0.000883244 0.0507849 1.58083 -3.26504 0.90731 0.264361 -0.0357134
53 1 0.649906 0.000302458 0.0012168 0.449359 -3.27829 0.0466698 -0.291405 -0.0144097
54 1 0.675484 0.0245225 0.00169032 0.817455 -3.29551 -0.520566 0.316202 -0.360195
57 1 0.698727 0.000359448 0.00134702 0.656007 -3.29032 0.410448 -0.460622 -0.530556
64 1 0.748846 0.0254463 0.0235581 0.641964 -3.21236 -0.303371 -0.317202 0.668793
59 1 0.721533 0.00104564 0.0264119 1.35084 -3.33519 0.506868 -0.123541 0.225263
1658 1 0.725485 0.0246426 0.0508899 0.76977 -3.35598 -0.529481 0.113749 -0.223787
63 1 0.77476 0.000962355 0.0244093 0.653885 -3.32518 -0.195411 -0.388598 0.0190053
68 1 0.7977 0.0257704 0.0234369 0.940343 -3.28358 0.731633 -0.610755 -0.0984623
67 1 0.824134 -0.00039127 0.0254983 0.409914 -3.33544 0.380625 0.287472 -0.317692
1665 1 0.79967 -0.000220153 0.0501477 0.274895 -3.30133 -0.249367 -0.141505 -0.257156
1666 1 0.825132 0.0227546 0.0496209 1.14543 -3.28405 0.272226 0.400343 -0.0852649
72 1 0.85023 0.0258746 0.0246053 0.638213 -3.34541 -0.17706 -0.385177 -0.371453
1669 1 0.848116 -0.00215646 0.0514233 1.35605 -3.29284 0.59781 0.257258 -0.0916478
70 1 0.876359 0.024292 -0.00150427 0.474661 -3.34565 -0.547871 0.365386 0.32714
76 1 0.899523 0.0235323 0.0259133 1.14551 -3.27664 -0.0591585 0.371817 -0.38225
75 1 0.923747 0.000900026 0.0236483 1.1621 -3.26513 0.68824 -0.014892 0.169921
1674 1 0.928196 0.0246308 0.0511145 1.75496 -3.28755 -0.570645 -0.00395433 -0.300995
4 1 0.999161 0.0239597 0.0247691 0.376618 -3.29996 0.341458 0.272718 -0.345829
80 1 0.951975 0.0231849 0.0248871 0.80053 -3.31909 -0.271932 0.00879201 -0.339595
79 1 0.976396 -0.00154293 0.0246779 0.659237 -3.27851 -0.0627278 0.212732 -0.133487
78 1 0.975729 0.023318 -0.00113194 0.378233 -3.3348 -0.583955 0.196364 0.146911
1601 1 1.00047 0.000777138 0.0497942 0.490281 -3.21983 -0.303926 -0.461458 -0.133453
1678 1 0.975501 0.024705 0.0494643 0.256495 -3.30329 -0.224316 -0.113773 0.463067
1677 1 0.950407 0.000383581 0.0499579 0.2324 -3.3313 0.268835 -0.256122 0.0125402
83 1 0.0260766 0.0507596 0.0257236 0.443799 -3.38535 -0.37589 0.031888 -0.0864617
88 1 0.0524073 0.0761481 0.0262633 1.64331 -3.31248 -0.485595 -0.376212 -0.233802
82 1 0.02347 0.0755616 -0.00045724 0.387047 -3.32218 0.0231465 -0.322417 0.0215431
1681 1 -0.00149843 0.0492119 0.0509473 1.01926 -3.27305 0.54686 0.195638 -0.623165
1682 1 0.0250668 0.0742478 0.0494663 0.937441 -3.27505 -0.00123421 0.0280803 -0.0411799
92 1 0.0997457 0.0745317 0.0268512 0.652005 -3.29204 -0.0339884 0.420556 -0.481799
86 1 0.0744988 0.0750364 -0.00110427 0.710735 -3.33222 0.399823 0.169979 0.198353
96 1 0.150083 0.0778301 0.0244907 0.997948 -3.29679 0.0137832 -0.441748 -0.213639
1690 1 0.123848 0.0760869 0.0502604 0.640347 -3.28688 0.327263 -0.155259 0.0789547
175 1 0.175852 0.101518 0.0255263 0.719703 -3.28539 -0.111027 -0.237869 -0.512647
1693 1 0.14925 0.0525623 0.0534125 2.3566 -3.24897 -0.0243725 -0.209767 -0.919693
90 1 0.126261 0.07545 -0.00126509 0.81231 -3.31368 0.0197793 0.272884 0.418632
99 1 0.22818 0.0512795 0.0255716 0.90886 -3.27394 -0.516139 -0.051812 -0.276203
95 1 0.175731 0.0493323 0.0263387 0.633263 -3.2266 -0.295391 0.448311 0.152845
100 1 0.200206 0.0731773 0.02479 1.08145 -3.28704 0.0622188 0.535217 -0.0071861
1698 1 0.225372 0.0761161 0.0497233 0.250544 -3.34819 -0.189142 0.161603 -0.0321783
104 1 0.251769 0.0762217 0.0232011 0.814306 -3.33872 0.0196786 0.194477 0.24767
1701 1 0.249918 0.0524179 0.0501048 0.549357 -3.24805 0.123919 -0.417798 0.273523
183 1 0.276606 0.100475 0.0231511 0.696708 -3.26415 -0.386807 -0.0997787 0.289277
1702 1 0.275872 0.0735803 0.0512025 1.69481 -3.24325 -0.0744998 0.809897 -0.348451
102 1 0.277717 0.0764775 -0.00161508 1.31347 -3.32541 -0.744858 0.00572126 0.28238
107 1 0.324606 0.0521477 0.0240298 0.521058 -3.33033 -0.072227 -0.136546 0.0688364
105 1 0.300801 0.0517342 -0.00144867 0.298889 -3.31225 0.144854 0.172639 0.175281
108 1 0.299287 0.0761443 0.0262559 0.896478 -3.31365 0.39823 -0.18369 -0.180862
106 1 0.325539 0.0776612 -0.00123391 0.829022 -3.30155 -0.47988 -0.579069 0.250702
112 1 0.347882 0.0774475 0.0252608 1.56835 -3.26256 0.485914 -0.494843 -0.0958345
1789 1 0.349158 0.0994214 0.050271 0.44809 -3.29785 0.623562 0.686546 -0.0265768
109 1 0.347963 0.0496665 -0.000888365 0.614309 -3.26586 0.185281 0.188044 0.246406
185 1 0.299947 0.102505 -0.00125228 0.813936 -3.19321 0.199412 -0.440255 0.271091
111 1 0.373559 0.0506738 0.0229148 1.44218 -3.3411 0.12303 -0.000590783 0.517258
191 1 0.376473 0.0998841 0.0260989 0.726367 -3.27793 -0.622001 0.119652 -0.277259
116 1 0.399806 0.0757345 0.0283212 2.22545 -3.26378 0.0738455 -0.526981 -0.736813
1710 1 0.373222 0.0733042 0.0501216 1.10209 -3.32344 0.240703 0.210029 0.00627608
110 1 0.374759 0.0751602 0.00137347 0.473754 -3.33105 0.103202 -0.01315 0.0402895
120 1 0.45291 0.072556 0.0228701 6.41537 -3.21339 -0.857124 0.182006 0.732422
195 1 0.427903 0.0979412 0.026307 1.93477 -3.32449 -0.277802 0.20078 -0.31841
114 1 0.42335 0.0739853 0.00080135 0.731739 -3.33177 -0.151705 -0.196311 0.296076
124 1 0.498097 0.0746997 0.0256978 1.24704 -3.30786 0.731537 -0.599252 -0.116986
122 1 0.526161 0.0727134 0.00142106 0.624418 -3.27743 -0.176509 0.150784 -0.199654
199 1 0.474419 0.0981212 0.0240723 0.695735 -3.28014 -0.308682 0.491296 0.251252
118 1 0.475772 0.0740675 -0.00112449 1.04541 -3.22862 0.416478 -0.399419 -0.0409121
121 1 0.50019 0.0484357 0.000703088 0.350868 -3.34395 -0.0899243 0.0428556 0.0685431
128 1 0.550517 0.0735353 0.0254348 0.330414 -3.29327 0.136186 -0.327732 0.407141
127 1 0.57497 0.0484143 0.0257709 0.350812 -3.33864 -0.250086 0.261639 0.154256
126 1 0.57404 0.0752146 0.00135485 0.634148 -3.28803 -0.2528 -0.312701 -0.490492
1805 1 0.552701 0.0985628 0.052159 1.39065 -3.26133 -0.670326 -0.0789246 0.0715434
1726 1 0.57672 0.0732316 0.0529444 1.13206 -3.33107 -0.181719 0.055024 -0.49197
131 1 0.623938 0.0489086 0.0276511 0.575472 -3.32655 0.0326644 -0.0973508 -0.115137
132 1 0.597978 0.0743998 0.0243145 1.14881 -3.26177 0.109857 0.0260244 0.777415
1730 1 0.622376 0.0750544 0.0505672 1.03653 -3.32632 0.567641 -0.182123 -0.264931
211 1 0.622685 0.100053 0.0251042 0.525634 -3.26489 0.244826 -0.300669 0.577432
130 1 0.623248 0.07559 0.00163867 0.66557 -3.21205 0.141243 -0.0861098 -0.319528
136 1 0.647667 0.0734723 0.0254423 0.668927 -3.3159 0.327009 0.288883 0.394055
140 1 0.697006 0.0756048 0.0250546 0.699771 -3.31861 0.354091 -0.00689958 0.243276
134 1 0.670858 0.0738726 -0.000326788 1.20312 -3.29099 0.35796 -0.173627 0.274456
215 1 0.6732 0.101594 0.0253244 1.16085 -3.30131 -0.0256806 -0.2701 0.845634
1734 1 0.672937 0.0741706 0.0510209 0.629728 -3.26992 0.26545 0.565507 -0.344961
133 1 0.644909 0.049485 -6.63173e-05 2.46582 -3.33139 0.769071 -0.365426 0.450415
217 1 0.697244 0.0983197 0.00171721 0.782468 -3.32441 0.0254223 0.390927 -0.390875
139 1 0.723809 0.0516507 0.0257858 0.678307 -3.33333 -0.391659 -0.292925 0.00116722
144 1 0.748277 0.0750473 0.0261559 0.278191 -3.33807 0.126984 0.295794 -0.201138
219 1 0.722359 0.100579 0.0273579 0.739564 -3.28426 0.253055 -0.614441 -0.401945
141 1 0.748922 0.0499992 -0.000851712 0.735595 -3.28628 -0.0724779 0.187823 0.303886
221 1 0.748561 0.100349 0.00107141 0.284213 -3.30996 -0.18298 -0.0424609 0.387338
143 1 0.773545 0.0482517 0.0242853 0.506489 -3.25676 -0.102817 0.834611 0.260285
142 1 0.772789 0.0751964 0.00163909 0.481612 -3.2881 0.0736331 -0.0224694 -0.107044
148 1 0.797843 0.0740947 0.0248965 0.594852 -3.29817 0.09752 -0.0271888 0.425244
147 1 0.823149 0.049481 0.0233829 0.624031 -3.27186 0.13325 -0.235704 0.0206334
151 1 0.874258 0.0505757 0.0246783 0.789649 -3.27217 0.382709 -0.237346 -0.586923
152 1 0.848748 0.0725409 0.0228087 0.910054 -3.24831 0.258368 0.25047 0.0103737
1750 1 0.874491 0.0741767 0.0495404 0.535674 -3.28695 0.457031 -0.462977 -0.354075
231 1 0.872092 0.098299 0.0242122 1.11219 -3.33128 0.239992 0.297738 -0.265307
146 1 0.821178 0.0733822 0.000955131 1.89918 -3.2498 0.668256 -0.168177 -0.757897
155 1 0.925716 0.0476491 0.0241027 0.844154 -3.3089 -0.161618 0.302678 -0.0348185
156 1 0.899906 0.076226 0.0219967 1.283 -3.27304 -0.37111 -0.472282 0.359486
1754 1 0.922185 0.0749302 0.0470493 1.42002 -3.33884 0.175439 -0.409956 0.404521
235 1 0.923883 0.0998387 0.0249678 0.404656 -3.28767 0.221184 0.0976201 -0.370282
1833 1 0.898546 0.100483 0.0489171 0.521182 -3.30816 0.109528 -0.0111199 -0.231063
1753 1 0.899281 0.0475458 0.0472173 1.43888 -3.30192 0.181285 0.400523 0.535948
84 1 1.00046 0.0754307 0.0253842 0.344868 -3.34791 -0.354922 -0.323603 -0.12826
159 1 0.975405 0.0486236 0.0237942 0.470779 -3.28169 0.00965375 0.373283 0.237722
160 1 0.950503 0.0744961 0.0249291 0.372427 -3.34315 -0.346894 -0.0938461 -0.206628
1757 1 0.950647 0.0491931 0.0482289 0.588179 -3.26763 0.00438254 0.230151 0.172034
161 1 -0.00168341 0.100555 -0.000368388 0.363887 -3.25588 0.312998 -0.394817 -0.0898179
163 1 0.0242185 0.100275 0.0240874 0.399855 -3.27587 -0.177256 -0.311146 0.279779
168 1 0.0482724 0.123583 0.0247282 0.431913 -3.29859 0.475515 0.154291 -0.0675669
1762 1 0.0238928 0.124907 0.0501759 0.23582 -3.26174 0.295679 0.073198 -0.190779
164 1 -0.00160659 0.123917 0.0244736 0.42349 -3.28998 0.463053 0.128903 0.0658333
167 1 0.0758573 0.0999413 0.0258672 0.560132 -3.33634 0.112215 0.275532 -0.0297058
172 1 0.100344 0.127306 0.0237971 0.815368 -3.2508 -0.189283 -0.727884 0.444305
1766 1 0.0744146 0.124483 0.0483563 1.03484 -3.3607 0.148462 0.0223344 0.262409
1769 1 0.102204 0.102235 0.051507 1.20354 -3.3276 -0.442342 0.0229861 -0.19617
169 1 0.100822 0.100877 0.000980702 0.542236 -3.3567 -0.109268 -0.180544 -0.486015
166 1 0.0751841 0.124606 -0.000163264 0.293034 -3.34888 -0.161288 -0.36812 -0.157873
171 1 0.124068 0.101131 0.025275 0.532102 -3.30545 0.0404366 0.0731274 -0.176403
176 1 0.150257 0.126742 0.024688 0.176473 -3.30566 -0.18946 -0.172317 -0.123756
251 1 0.1236 0.150119 0.023632 0.890134 -3.23779 0.566774 0.35487 0.554258
170 1 0.125939 0.127016 -0.000497397 0.442545 -3.28273 -0.293373 -0.459823 0.0402836
173 1 0.150008 0.101455 -0.00158396 0.360219 -3.35526 0.147468 -0.376785 0.329106
179 1 0.223392 0.0992012 0.0251523 1.04516 -3.32839 0.325876 0.0941353 -0.322843
180 1 0.200089 0.126073 0.0248145 0.331584 -3.24841 -0.246665 -0.061211 0.00807135
259 1 0.225044 0.14898 0.0257366 0.712911 -3.30216 0.606908 0.355196 -0.175015
178 1 0.221192 0.125412 -0.00103828 1.63948 -3.30516 0.541928 -0.31073 -0.123576
177 1 0.198936 0.0991406 -0.000220456 0.513654 -3.34846 0.0617613 0.0302252 -0.23074
184 1 0.249973 0.123359 0.0228019 1.28929 -3.31938 -0.0560891 0.188869 -0.00518328
182 1 0.274428 0.124034 -0.00168436 0.662796 -3.22933 -0.0882434 0.49132 0.292152
181 1 0.247796 0.0999784 -0.0018466 0.855663 -3.33334 0.387689 0.26347 0.319211
187 1 0.323458 0.100532 0.0244098 0.814622 -3.29662 -0.0387284 0.435244 0.0873157
188 1 0.2981 0.125859 0.0233252 1.16301 -3.32096 0.548595 0.291457 0.232106
192 1 0.350172 0.124883 0.0255434 0.287274 -3.29551 0.232596 -0.336908 -0.286141
267 1 0.327717 0.150296 0.0250479 1.26307 -3.24261 -0.87235 0.119647 -0.111246
1786 1 0.326101 0.125946 0.0490389 0.486794 -3.32072 -0.676872 -0.174767 0.325039
269 1 0.351523 0.150733 0.00121564 0.980194 -3.26791 0.293626 -0.238593 -0.515736
196 1 0.398826 0.125628 0.0247322 0.800158 -3.22671 0.841949 -0.415221 0.194464
1790 1 0.375675 0.126398 0.0489753 0.708403 -3.30022 -0.216722 -0.514532 0.846822
273 1 0.399968 0.149859 0.00138657 0.560851 -3.31978 0.0344071 0.347619 -0.425698
200 1 0.449385 0.123832 0.0255949 0.771771 -3.26393 0.678518 -0.232071 -0.368536
275 1 0.425716 0.149456 0.024472 0.18519 -3.27325 -0.0668697 0.22364 0.0427945
204 1 0.499163 0.121788 0.0245225 0.990259 -3.24124 0.232199 0.43599 -0.0998614
203 1 0.528106 0.098798 0.0273623 2.22144 -3.28912 -0.35813 -0.304744 -0.209063
198 1 0.476078 0.12247 -0.000431641 0.27224 -3.36909 -0.193053 0.144168 0.124671
202 1 0.525316 0.122226 0.00249602 1.21142 -3.24192 -0.162003 0.368634 -0.790752
281 1 0.50198 0.147124 0.000172734 0.552154 -3.34498 -0.428097 0.196576 -0.189287
207 1 0.573008 0.098985 0.0268516 0.870071 -3.2838 0.410009 0.214862 -0.62733
208 1 0.549071 0.124339 0.0253413 0.442466 -3.26436 0.611352 0.230745 0.378418
287 1 0.574197 0.150084 0.024982 0.331587 -3.32912 0.458438 -0.401493 0.106654
1806 1 0.575262 0.123303 0.0498335 0.706025 -3.27679 0.0584227 0.569135 0.0748276
205 1 0.54871 0.0991139 -0.00086571 0.855499 -3.26502 0.396183 -0.323444 0.32627
206 1 0.573395 0.123483 0.000613724 0.669081 -3.34632 0.548516 0.177489 0.0195951
212 1 0.600672 0.125607 0.026328 0.786641 -3.29145 -0.598504 -0.193856 -0.0955744
1809 1 0.599472 0.099057 0.0501474 0.62219 -3.29225 -0.0684142 0.286997 0.142037
210 1 0.623794 0.12556 0.00119245 0.235186 -3.27136 0.107 0.0139052 0.0154273
1889 1 0.599705 0.150488 0.0528977 0.628604 -3.31376 -0.162332 -0.180511 -0.314032
291 1 0.621808 0.150609 0.0268173 0.702398 -3.28587 0.511711 0.0229264 -0.172517
289 1 0.598218 0.152031 0.000603103 1.07124 -3.31792 0.310902 -0.569025 -0.0552545
216 1 0.645962 0.124769 0.0265513 0.98462 -3.30475 0.526767 0.220185 0.0625302
220 1 0.699617 0.125043 0.0264139 0.344657 -3.25403 -0.727961 0.18125 0.269644
295 1 0.673821 0.150244 0.0265012 0.251123 -3.29886 0.316826 -0.392998 -0.216499
213 1 0.648354 0.0990479 0.00299588 1.01289 -3.27143 0.0425227 0.368123 -0.623327
214 1 0.673044 0.126182 0.00249074 0.725221 -3.31922 0.416798 -0.245183 0.0911532
224 1 0.748362 0.123527 0.0250381 0.379715 -3.31561 0.0215072 0.431901 -0.0619171
1818 1 0.724439 0.12455 0.0503791 0.274211 -3.28661 0.0933919 0.202432 0.154215
299 1 0.724018 0.149077 0.0256423 0.480483 -3.28776 0.575 0.166329 -0.00995335
218 1 0.720771 0.123931 0.00140535 1.13594 -3.33146 0.450703 0.0434916 -0.334139
223 1 0.774039 0.100785 0.0258279 0.589389 -3.2939 -0.0363384 -0.456393 -0.184923
222 1 0.775168 0.123711 0.000361924 0.61038 -3.3555 -0.14477 0.186223 -0.060123
227 1 0.826602 0.0973877 0.02226 1.91539 -3.24591 -0.44171 0.154297 0.82657
1825 1 0.799443 0.0981527 0.0496486 0.238826 -3.32334 0.364984 0.118502 -0.134318
228 1 0.801121 0.123026 0.0245433 0.945349 -3.32867 -0.228391 0.341084 0.284482
232 1 0.847225 0.123238 0.023785 0.656133 -3.29604 0.377993 0.381982 -0.250019
309 1 0.847603 0.149332 -0.00106525 0.418535 -3.29511 -0.234722 0.123017 0.27703
1909 1 0.849568 0.148977 0.0496139 0.519758 -3.32783 -0.174715 0.129421 -0.328198
226 1 0.822575 0.123189 -0.00139457 1.05483 -3.24349 0.363556 0.453031 0.179343
230 1 0.874225 0.126672 -0.00130986 0.605757 -3.28639 0.0328836 -0.221257 0.572864
236 1 0.899757 0.12621 0.024388 0.439399 -3.27206 -0.41646 -0.275566 0.306221
1834 1 0.927077 0.123744 0.0476745 1.8784 -3.19989 -1.03902 0.316241 0.441877
239 1 0.974904 0.0987982 0.0257198 0.248869 -3.29657 0.0702801 -0.0539445 0.0688359
1761 1 1.00036 0.100566 0.0506105 0.590933 -3.30509 0.446406 -0.733618 -0.0604462
240 1 0.950688 0.123034 0.0259399 0.765451 -3.26873 0.306541 0.461182 -0.576074
1838 1 0.976679 0.123322 0.0510939 0.943675 -3.28142 -0.699587 0.321283 -0.0225752
1837 1 0.948892 0.0976525 0.0499786 0.703222 -3.26413 0.468076 0.364848 -0.276174
238 1 0.974383 0.123824 0.000450856 0.41456 -3.28362 -0.412278 0.700929 -0.234655
243 1 0.0250285 0.149007 0.0234552 0.423144 -3.34685 -0.532761 -0.0248297 0.229978
248 1 0.0498299 0.17309 0.0239338 0.74626 -3.29321 -0.235522 0.503777 0.108071
323 1 0.0242833 0.198319 0.0265747 0.817374 -3.23384 -0.0922294 0.0544527 -0.407804
1841 1 -0.000222617 0.148391 0.0503316 0.406386 -3.3074 -0.331015 0.259304 -0.0629632
1845 1 0.0498506 0.148812 0.049325 0.518026 -3.29326 -0.0560665 -0.0566407 0.16395
247 1 0.074549 0.15049 0.0252666 0.280886 -3.21282 -0.133221 -0.44271 0.108848
252 1 0.0984194 0.174782 0.0245837 0.592142 -3.2328 -0.0974783 0.197806 0.00456307
246 1 0.0736307 0.176377 -0.000551129 0.875579 -3.34607 -0.0714963 -0.0258177 -0.0754994
327 1 0.0753606 0.19855 0.0276387 2.19676 -3.27461 -0.502134 0.315431 -0.69013
253 1 0.148997 0.15183 -2.44989e-05 0.549144 -3.24741 0.669815 -0.114441 0.0612721
255 1 0.173894 0.152007 0.024387 0.561339 -3.28387 0.407157 -0.458754 0.0229977
256 1 0.149906 0.17488 0.0249573 0.42667 -3.22741 -0.291022 0.290092 0.0675883
250 1 0.12496 0.175828 0.00272911 1.69857 -3.28115 -0.414306 0.196972 -0.94745
1854 1 0.174595 0.176213 0.047315 1.82921 -3.30242 0.113846 0.16821 0.808229
260 1 0.201343 0.17485 0.0259141 0.728773 -3.28735 -0.182046 0.35656 0.137717
339 1 0.225184 0.200821 0.0254323 0.296999 -3.30782 -0.0603154 0.185978 0.434049
1857 1 0.200003 0.150964 0.0491091 0.639258 -3.33309 -0.121066 0.0303482 0.264966
1858 1 0.226717 0.177332 0.0513129 1.22938 -3.3138 -0.775575 -0.0813226 -0.013379
263 1 0.271958 0.1513 0.024008 1.31176 -3.32626 0.283988 -0.329016 0.0916561
1861 1 0.249206 0.15158 0.0516659 1.19632 -3.27587 -0.208031 -0.0193873 -0.49977
264 1 0.249425 0.17598 0.0263023 0.282934 -3.29681 -0.0208079 -0.00792977 -0.133425
1862 1 0.275066 0.176457 0.0496325 0.387621 -3.32443 -0.170257 -0.0867225 0.11792
343 1 0.275385 0.20167 0.0254015 0.236083 -3.28713 0.164 -0.21857 0.172224
1941 1 0.251446 0.202081 0.0503896 0.459277 -3.33261 -0.120601 -0.0518213 -0.0504969
268 1 0.299231 0.175285 0.0243968 0.424425 -3.27858 0.307891 0.0181323 -0.0773984
1866 1 0.321519 0.176546 0.0492127 1.67926 -3.31171 0.877029 0.0204658 0.110664
272 1 0.3511 0.176099 0.0232186 0.956362 -3.33643 0.289475 -0.0488105 0.497944
1949 1 0.3509 0.202081 0.0486511 0.704305 -3.27626 -0.216658 -0.599435 0.0706875
271 1 0.37552 0.149796 0.0269452 1.17372 -3.24704 -0.355139 0.670444 -0.490285
276 1 0.401827 0.176054 0.0235564 0.736494 -3.36399 -0.387138 -0.241582 0.123242
351 1 0.376842 0.19962 0.0251742 0.816067 -3.29085 -0.134272 -0.189494 -0.491801
270 1 0.37668 0.174838 -0.00260832 1.22099 -3.32792 -0.426484 0.2749 0.554031
280 1 0.451165 0.173469 0.0248252 0.237068 -3.32226 -0.00360598 0.320656 -0.024022
1957 1 0.450031 0.198463 0.0495488 0.577432 -3.23445 0.399919 -0.0578108 -0.279581
1874 1 0.42568 0.173473 0.0480478 0.849542 -3.32603 0.193631 0.296449 0.394434
279 1 0.474217 0.147891 0.0231476 1.0092 -3.26896 0.769299 0.00712485 0.362611
278 1 0.475201 0.174371 -0.000725453 0.623008 -3.27184 -0.296409 -0.33658 0.181488
1881 1 0.501175 0.14968 0.0485218 0.718283 -3.29725 -0.598633 0.111874 0.388351
283 1 0.524614 0.148292 0.0250221 0.318798 -3.30113 0.431206 0.0795768 -0.0019893
284 1 0.499012 0.172672 0.0242676 0.771705 -3.31902 0.076849 -0.158113 0.160783
282 1 0.528731 0.172542 0.00208088 2.14207 -3.22113 -0.890008 0.390022 -0.198944
288 1 0.551374 0.174466 0.026173 0.528221 -3.20162 -0.171021 0.0351277 -0.0108643
1886 1 0.574607 0.174841 0.0499182 0.415768 -3.29829 0.317455 0.166891 0.487174
286 1 0.57345 0.174497 0.000733535 0.432236 -3.29284 0.249929 0.180515 -0.134437
292 1 0.600637 0.175977 0.027672 1.24155 -3.22309 -0.801458 -0.287902 -0.3751
369 1 0.598969 0.198932 0.000481501 0.366669 -3.29401 -0.483975 0.396639 -0.0992927
371 1 0.624616 0.198305 0.0254996 0.753572 -3.21551 0.218269 0.632531 0.190531
290 1 0.62311 0.17653 0.0015727 0.87415 -3.24692 0.426515 -0.819028 -0.28491
1890 1 0.623917 0.175181 0.0523317 0.462933 -3.31184 0.400332 0.0597845 -0.0506181
1893 1 0.648641 0.149395 0.0510324 0.321124 -3.30524 -0.204069 0.373519 0.0420861
296 1 0.649006 0.173407 0.0249896 0.925185 -3.2547 -0.598151 0.370709 0.274077
300 1 0.702964 0.175356 0.0239538 2.64773 -3.29775 -0.659562 -0.0769265 0.730219
1894 1 0.673875 0.174217 0.0473108 2.31043 -3.31638 0.409629 0.540411 0.732971
377 1 0.69777 0.198508 0.000481902 1.37845 -3.23861 0.486876 0.534946 -0.153582
294 1 0.673695 0.175849 0.00228517 0.831673 -3.27112 -0.0244424 -0.322431 -0.42256
304 1 0.749025 0.175562 0.0248087 0.359018 -3.33468 -0.130094 -0.504283 0.0681377
379 1 0.726026 0.199344 0.0249656 1.04384 -3.26652 -0.381667 0.531667 0.0243526
1981 1 0.748545 0.200254 0.0512498 0.542782 -3.2497 0.590972 -0.300519 -0.194384
301 1 0.747087 0.149551 -0.00166099 1.07589 -3.30262 0.36169 -0.0311591 0.758406
298 1 0.72418 0.175719 -0.00154839 1.02332 -3.29078 0.362365 0.0531167 -0.0932834
381 1 0.749831 0.202936 0.000288189 1.74068 -3.29464 0.172864 -0.627597 -0.261123
303 1 0.772513 0.149493 0.0232191 0.859856 -3.3296 0.179548 -0.281425 0.145582
383 1 0.772847 0.200568 0.0266713 1.03276 -3.25944 0.666793 -0.369423 -0.112497
308 1 0.797185 0.17426 0.0246621 0.40066 -3.31231 0.32568 0.143642 0.106934
302 1 0.774401 0.175154 -5.66445e-06 0.290881 -3.26129 -0.542807 0.0117925 0.256923
311 1 0.873534 0.149396 0.0236685 0.290973 -3.37226 -0.131631 0.251091 0.0965228
307 1 0.823561 0.14983 0.0237644 0.285804 -3.36175 -0.21701 -0.250496 0.238578
387 1 0.822547 0.200394 0.02439 0.410893 -3.27694 0.20323 -0.250031 0.0871422
312 1 0.847185 0.174443 0.0231924 0.514267 -3.29678 0.402843 0.0576514 0.526246
1910 1 0.874418 0.176121 0.0486672 0.671345 -3.32275 0.00648095 -0.590826 -0.000347549
310 1 0.871406 0.175282 -0.000377688 0.867922 -3.29442 0.951041 0.127405 0.352671
306 1 0.822753 0.175228 -0.000421229 0.254242 -3.3106 -0.14022 -0.288494 -0.0773099
315 1 0.924477 0.150862 0.0250975 0.403637 -3.33476 0.157145 0.0338524 0.0527409
316 1 0.898639 0.175237 0.0248286 0.203023 -3.37617 0.221473 0.0835394 -0.204119
395 1 0.925698 0.200665 0.0243568 0.327221 -3.34707 -0.529849 -0.266132 0.0131306
1914 1 0.925882 0.175016 0.0502365 0.360822 -3.38393 -0.169827 -0.196466 -0.108038
244 1 0.999415 0.175485 0.0243192 0.505602 -3.27457 0.286767 -0.497447 0.0706524
319 1 0.976573 0.149395 0.0246111 0.521634 -3.32658 -0.683959 0.127881 0.165968
320 1 0.950839 0.174978 0.0240542 0.331324 -3.3306 -0.263779 -0.143538 0.239065
397 1 0.949706 0.198465 -0.000733131 0.99933 -3.31501 0.474281 0.470798 0.231917
1917 1 0.951278 0.148791 0.0496398 0.566953 -3.37455 -0.00468866 0.271237 0.0638424
1997 1 0.949821 0.200031 0.0494021 0.167977 -3.30493 -0.161717 0.0665033 0.11727
241 1 0.99841 0.149278 -0.000137115 0.402764 -3.32251 0.449641 -0.00344371 -0.172855
325 1 0.0481008 0.201254 0.00297058 2.0976 -3.2753 0.503064 -0.561293 -0.685067
328 1 0.0477124 0.22348 0.0256396 0.770557 -3.27567 0.496947 0.519057 0.105596
2005 1 0.051431 0.251062 0.050029 1.37176 -3.27074 -0.704179 -0.181404 -0.494662
321 1 -0.000998264 0.200522 0.00113786 0.661837 -3.28802 0.556226 -0.184398 -0.179051
401 1 0.00027038 0.251568 3.77641e-05 0.557304 -3.33398 0.251786 -0.216308 -0.160556
1922 1 0.0241171 0.225098 0.0496323 0.382364 -3.30021 -0.205011 0.0741273 -0.157757
332 1 0.0983744 0.224334 0.0250545 0.564635 -3.3329 0.0265377 0.302636 -0.304652
407 1 0.0730694 0.250088 0.0242012 0.607657 -3.3287 0.139513 -0.275415 -0.0562803
1926 1 0.0723028 0.224038 0.050037 0.938053 -3.2657 0.350986 0.182139 -0.330649
331 1 0.124155 0.200736 0.0247506 0.286697 -3.32636 0.139529 0.195003 -0.290958
336 1 0.149872 0.225905 0.0246173 0.497655 -3.29714 -0.708883 -0.619683 -0.37524
335 1 0.174518 0.200506 0.0223581 1.07075 -3.36111 0.245553 0.165148 0.776499
334 1 0.174121 0.224242 -0.00199245 1.31545 -3.27325 0.132471 0.110331 0.3934
1930 1 0.124464 0.227079 0.0493897 1.24465 -3.29482 0.142636 -0.368449 -0.18682
1934 1 0.173354 0.224532 0.0481838 0.867296 -3.30772 0.327533 -0.394924 0.713114
340 1 0.199894 0.227332 0.0253053 1.1399 -3.27037 -0.456343 -0.885261 -0.23593
417 1 0.196442 0.248323 -0.000103399 1.97967 -3.32488 0.557488 0.50691 -0.119453
419 1 0.223106 0.250875 0.0257511 0.518716 -3.28865 0.713666 -0.0783995 -0.0761844
1938 1 0.224253 0.225071 0.0487932 0.765885 -3.32435 0.528182 0.377039 0.254673
344 1 0.251894 0.226158 0.0255452 0.715678 -3.1651 -1.47921 -0.317372 0.436561
2021 1 0.250181 0.252581 0.0488488 1.61442 -3.37832 -0.206688 -0.684617 0.281133
1942 1 0.276413 0.227419 0.0490715 1.01704 -3.29772 -0.0912863 -0.194325 0.451001
423 1 0.275745 0.2476 0.0240637 2.73218 -3.23495 0.575 1.37942 0.322255
347 1 0.325488 0.199192 0.025428 0.841241 -3.3213 -0.076678 0.0648599 -0.184245
348 1 0.303828 0.225202 0.0259781 2.05882 -3.2062 -1.10264 -0.207239 -0.0616995
427 1 0.325401 0.250366 0.023227 0.886616 -3.30709 0.375663 0.402821 0.298974
2025 1 0.30169 0.250744 0.0493391 0.627182 -3.28815 -0.524467 -0.180152 0.252848
352 1 0.351415 0.224105 0.0241136 0.338604 -3.32347 0.044575 0.359325 0.00705714
349 1 0.350252 0.201482 -0.000693787 0.994978 -3.33175 0.262284 -0.601766 0.081558
350 1 0.376713 0.224392 -0.00196313 0.419318 -3.30231 -0.398318 0.306784 0.0499371
356 1 0.400954 0.224627 0.0224226 0.675292 -3.25338 0.409527 0.0151393 0.226801
431 1 0.377177 0.248783 0.0229811 0.414868 -3.26404 -0.696128 -0.0278055 -0.151267
1953 1 0.401373 0.199921 0.0501037 0.540659 -3.23091 0.119807 -0.666351 -0.196864
353 1 0.401078 0.201567 -0.000795278 0.50476 -3.32779 0.280691 -0.536208 -0.257845
355 1 0.426034 0.200844 0.0240842 0.563631 -3.29709 -0.122387 -0.193339 0.231439
357 1 0.449834 0.19891 0.000692756 0.436714 -3.28913 0.395032 0.249264 -0.383778
435 1 0.426823 0.248773 0.0244948 0.363753 -3.35273 0.231875 -0.184831 0.0081705
1954 1 0.425941 0.222982 0.0511049 1.09866 -3.27457 -0.449519 0.619417 -0.711611
360 1 0.453343 0.222848 0.0268569 1.92078 -3.3134 -0.418728 0.397079 -0.352943
354 1 0.427581 0.225977 -0.000565814 0.773166 -3.32502 -0.187159 -0.464714 0.0456063
359 1 0.4762 0.198453 0.0269394 0.83311 -3.22318 -0.470044 -0.478486 -0.453011
363 1 0.524668 0.196233 0.0242127 1.17211 -3.2827 0.232267 0.708235 0.40398