ITEM: TIMESTEP
17750
ITEM: NUMBER OF ATOMS
32000
ITEM: BOX BOUNDS pp pp pp
7.0734811914348290e+00 7.3926518808565220e+01
-3.5349853298412839e+00 8.4534985329841561e+01
-5.3437562315327511e+00 8.6343756231532254e+01
ITEM: ATOMS id type xs ys zs c_csym c_peratom fx fy fz
4 1 0.00578934 0.0356387 0.0342312 6.31241 -3.29984 0.182712 0.264624 -0.47012
8 1 0.0488664 0.0288906 0.0294707 0.623097 -3.29469 -0.204157 0.373271 -0.751197
2 1 0.0223417 0.02835 0.00440411 1.4053 -3.29036 -0.0793378 -0.316059 -0.157173
85 1 0.0499839 0.0490308 0.00477917 1.97147 -3.31772 0.0372348 0.756326 0.324416
12 1 0.0910902 0.0226194 0.0246714 0.409334 -3.30606 0.0109194 -0.183174 -0.149852
91 1 0.11494 0.0482472 0.0287873 1.20284 -3.25849 0.556291 -0.222023 -0.0169689
6 1 0.0673997 0.0203526 0.999352 0.813059 -3.35736 -0.377246 0.0446946 0.113419
89 1 0.0927675 0.0457117 0.00355367 0.441277 -3.29425 -0.205481 -0.207974 -0.508397
16 1 0.132774 0.016323 0.0224317 0.576708 -3.31548 0.143148 0.272252 -0.448792
1614 1 0.157745 0.0179448 0.0468081 0.692673 -3.30979 0.823136 0.266983 -0.240177
95 1 0.160481 0.0419048 0.0244785 0.431505 -3.32791 -0.285009 0.0741667 0.141301
20 1 0.174531 0.0124165 0.0172188 0.685834 -3.30506 0.207661 -0.0182651 0.398408
99 1 0.201648 0.0368005 0.0206183 0.312531 -3.25559 0.0823801 -0.306213 -0.208131
24 1 0.216073 0.0050158 0.0151555 6.79796 -3.3994 0.268953 0.0642953 -0.141166
1618 1 0.199627 0.014628 0.043006 0.74286 -3.33897 -0.192479 -0.521159 -0.0473376
1701 1 0.226875 0.0363242 0.0438825 1.67655 -3.27401 0.327368 0.590938 0.406419
1622 1 0.246218 0.00800813 0.0397785 6.87425 -3.27205 -0.773671 -0.211595 -0.231885
103 1 0.242906 0.0304521 0.0164014 7.54072 -3.33978 0.121565 -0.0809979 -0.207329
28 1 0.274614 0.00913188 0.0188017 0.717429 -3.32401 0.209695 -0.115498 -0.369336
1705 1 0.269052 0.0357294 0.0397949 8.13551 -3.26571 0.316906 -0.45958 0.185542
1626 1 0.301303 0.0119362 0.0429853 0.758945 -3.38149 0.221424 -0.103311 -0.129871
1709 1 0.301263 0.033685 0.0182075 1.42785 -3.27093 0.0965678 -0.148789 0.558624
1630 1 0.336258 0.0116551 0.0233508 1.36237 -3.31369 -0.629869 0.255245 -0.0494458
1713 1 0.359107 0.0381793 0.0232229 0.399082 -3.27904 0.278831 0.0238447 0.233557
1711 1 0.327876 0.037362 0.0440935 1.4764 -3.32659 -0.00232619 -0.636312 0.125305
1636 1 0.362359 0.0148241 0.0463626 0.648059 -3.25726 -0.693332 -0.185007 0.433384
115 1 0.394686 0.0412731 0.00293965 1.50755 -3.30306 -0.709845 0.0446809 0.58882
1634 1 0.392563 0.0169836 0.0277301 0.667727 -3.23971 0.0179416 -0.165236 -0.687553
40 1 0.423434 0.0182948 0.00755391 0.972583 -3.331 0.135416 -0.00047627 -0.538146
1717 1 0.416371 0.0424971 0.0291448 0.405043 -3.28195 -0.110881 0.184403 -0.164325
1638 1 0.44753 0.0206118 0.0313595 0.27748 -3.31334 0.43138 0.0876776 -0.0841023
44 1 0.480205 0.0231706 0.0118536 0.511608 -3.34181 -0.086753 0.0697556 -0.265213
119 1 0.445929 0.0448962 0.00909103 1.4659 -3.30163 0.507222 -0.0844027 -0.0826517
1721 1 0.473525 0.0472431 0.032814 0.437078 -3.33161 -0.00988155 -0.452559 0.257326
1642 1 0.503621 0.0238226 0.0368353 6.12955 -3.28204 0.733954 0.516759 -0.232941
48 1 0.537088 0.0260337 0.0150739 0.67218 -3.31117 -0.180791 0.313135 -0.0887426
1645 1 0.536619 0.00137081 0.037231 6.57959 -3.26781 0.00962483 0.572581 0.547055
43 1 0.511267 0.000649104 0.0138208 0.905244 -3.24595 0.267489 0.515658 -0.582197
123 1 0.505829 0.0490375 0.0124977 0.368129 -3.28347 0.136333 -0.525955 0.104893
52 1 0.59853 0.0300269 0.017018 0.512022 -3.36975 -0.526568 0.0101939 0.0915278
47 1 0.566386 0.00452108 0.017318 2.14553 -3.32738 0.735053 0.0254937 -0.334756
1646 1 0.564009 0.0285718 0.0369001 0.539805 -3.32806 0.272046 -0.129363 0.238779
1649 1 0.596968 0.00690679 0.0403627 0.434044 -3.32087 -0.700555 -0.299347 -0.37831
1650 1 0.622565 0.0315317 0.0416597 0.882813 -3.19423 0.30856 0.307309 0.0874795
51 1 0.631159 0.00938296 0.0222385 0.915849 -3.3047 -0.203483 -0.358574 -0.443562
56 1 0.654684 0.0350956 0.0252163 1.86252 -3.31557 0.565901 0.00352118 -0.674824
1653 1 0.657338 0.0107125 0.0460282 0.794056 -3.29035 0.04896 -0.0513521 -0.179303
55 1 0.686513 0.0130921 0.0251748 0.828924 -3.32419 0.27647 0.06309 -0.01407
54 1 0.690171 0.0381311 0.00182779 1.12783 -3.31255 -0.451683 -0.0195903 0.158988
60 1 0.712812 0.0398787 0.0263922 1.64397 -3.27384 0.840372 -0.0794692 0.231545
57 1 0.719927 0.0173443 0.00674689 1.03125 -3.31456 0.256719 -0.535611 -0.282875
58 1 0.749064 0.0407258 0.00699452 0.38867 -3.31656 0.190063 0.600139 0.00651755
59 1 0.749599 0.0190457 0.0281419 1.10709 -3.31142 -0.11531 -0.693745 0.229005
64 1 0.778834 0.0428527 0.0309171 0.61156 -3.31036 -0.459315 -0.235226 -0.134851
61 1 0.781407 0.0197263 0.00887293 0.368402 -3.31309 0.32443 0.239466 0.325432
63 1 0.81134 0.0221882 0.0342982 1.40194 -3.27651 -0.223198 -0.726635 -0.712229
62 1 0.811292 0.0427151 0.0112997 1.69954 -3.2907 -0.410874 0.422009 -0.200225
68 1 0.835817 0.0474335 0.0340304 0.628334 -3.31939 0.196236 -0.0276579 0.43653
65 1 0.843325 0.0240608 0.0124491 0.479592 -3.32466 0.0259715 0.0651905 0.22332
66 1 0.868744 0.0506754 0.0158248 0.392441 -3.30295 0.36342 -0.567672 0.328773
67 1 0.869407 0.0255969 0.0376484 6.40399 -3.31162 0.122876 0.432293 -0.669915
1586 1 0.876678 0.00173011 0.0135034 7.3935 -3.22146 -0.276143 0.681504 1.04459
69 1 0.901963 0.0292219 0.0165661 7.91941 -3.32155 -0.341783 -0.240309 0.654669
73 1 0.94723 0.0249526 0.0277897 7.13039 -3.2584 -0.777257 -0.374541 -0.258479
71 1 0.911549 0.0193972 0.0464724 0.308988 -3.24267 0.336933 0.24286 -0.0914225
78 1 0.980283 0.0320757 0.00619501 5.85812 -3.23333 -0.333823 -0.277463 -0.228667
74 1 0.9678 0.0506754 0.0294613 3.59178 -3.22335 0.168036 0.144049 0.209709
79 1 0.980596 0.00967913 0.0282777 5.92532 -3.23526 0.160945 -0.291924 0.228572
77 1 0.95465 0.00632487 0.00177283 5.86278 -3.33154 -0.0534169 -0.0549552 0.219769
83 1 0.0322119 0.0626325 0.0341413 4.39905 -3.27966 0.643311 -0.480938 -0.378693
81 1 0.00248711 0.0562424 0.0105532 11.0864 -3.24063 0.572967 -0.0450189 -0.917501
82 1 0.031244 0.0799915 0.00727876 4.58035 -3.3544 -0.199994 -0.303583 0.238229
158 1 0.0244597 0.0976367 0.0328083 1.1016 -3.23775 0.0478911 -0.0120407 0.0549949
88 1 0.0619823 0.0857113 0.0358363 3.52235 -3.27982 -0.0147094 0.425612 -0.373753
87 1 0.0761816 0.054085 0.030051 0.987739 -3.26811 -0.289287 0.263774 -0.45775
92 1 0.101961 0.0839441 0.0372505 4.94792 -3.17784 0.0839672 -1.17898 -0.500616
86 1 0.0751105 0.0770827 0.00760959 1.33239 -3.28899 -0.0648918 -0.464869 0.404624
90 1 0.115893 0.0700603 0.00830158 1.56735 -3.31427 0.581115 0.561908 0.0226336
96 1 0.143407 0.0728109 0.0328681 1.07208 -3.32646 -0.158686 0.141397 -0.656455
100 1 0.189934 0.0652121 0.0262746 1.68536 -3.27076 -0.463166 0.711909 0.448104
94 1 0.161179 0.0656625 0.00369867 0.814868 -3.35509 -0.35519 -0.105122 -0.0589533
173 1 0.145168 0.0962729 0.010679 0.98224 -3.3194 -0.0199108 -0.524992 -0.195081
104 1 0.232108 0.0614948 0.0234525 1.22465 -3.31203 -0.192079 -0.0134433 -0.171811
179 1 0.214903 0.0927616 0.0282093 0.493803 -3.28803 0.336165 -0.298135 0.40058
183 1 0.256076 0.0879217 0.0245363 0.574334 -3.35987 0.0689669 0.191459 0.092054
1702 1 0.255171 0.0650562 0.0490548 2.86341 -3.29226 0.183502 0.0143911 -0.520226
1785 1 0.280733 0.0931236 0.0493209 4.07241 -3.31214 0.424691 -0.421798 -0.189307
1706 1 0.272215 0.0570912 0.0193375 6.79246 -3.26954 -0.230101 -0.0965406 -0.352271
1712 1 0.297037 0.0585914 0.0458504 5.90689 -3.28531 -0.317185 0.16169 -0.147441
1789 1 0.295727 0.0812517 0.0179191 8.57369 -3.27945 0.439305 0.139299 0.38942
1710 1 0.32611 0.0579921 0.0197019 1.53055 -3.33526 0.0808209 0.799526 0.482491
1793 1 0.353216 0.0853451 0.0227495 0.505888 -3.31438 -0.588909 -0.31597 -0.167508
116 1 0.359979 0.0608419 3.98822e-05 0.479802 -3.28309 -0.0845305 0.0148463 0.298322
1791 1 0.321634 0.082627 0.0459079 5.28714 -3.30385 -0.095884 0.0499528 -0.181008
1716 1 0.353402 0.0611232 0.0461513 0.534405 -3.32022 -0.0808206 -0.0777829 0.278882
195 1 0.385468 0.084999 0.000363222 2.7514 -3.23784 0.23768 0.627513 0.993046
1714 1 0.381937 0.0640602 0.0249497 1.48932 -3.31286 0.799055 -0.245797 -0.115451
120 1 0.418944 0.0675856 0.00331199 2.0667 -3.27348 -0.136332 -0.102996 0.687211
1797 1 0.409235 0.0874931 0.0297035 2.45337 -3.27349 0.26973 0.363975 -1.02967
1718 1 0.441054 0.0676781 0.0300916 0.440162 -3.33996 0.0984301 0.111668 -0.137947
199 1 0.442906 0.0918625 0.00756174 0.89018 -3.30781 0.115389 -0.069971 0.307861
124 1 0.476311 0.0691828 0.0114789 1.03389 -3.30247 -0.646457 0.158073 -0.513591
1801 1 0.470115 0.0912411 0.0332822 1.3631 -3.24571 -0.173293 0.229971 -0.579238
1725 1 0.532124 0.0503166 0.03555 0.545505 -3.3246 0.197049 -0.319426 0.0654918
1722 1 0.500659 0.0705855 0.0366406 1.6307 -3.25397 0.0455432 0.278706 -0.835468
128 1 0.532671 0.0719429 0.0131289 1.10907 -3.31583 0.23469 0.698322 0.53907
1726 1 0.561554 0.0736482 0.0386507 1.33001 -3.34202 -0.341408 0.351323 -0.384864
203 1 0.499754 0.0942409 0.011588 0.672303 -3.36882 0.56815 0.433845 -0.054512
1805 1 0.529079 0.097537 0.0337628 1.06565 -3.35692 -0.30539 -0.376105 0.0808928
127 1 0.565998 0.0514355 0.0147342 0.46984 -3.3586 0.0467791 0.00222231 0.249984
132 1 0.591462 0.0768021 0.0179761 0.646697 -3.36743 0.221728 0.0952912 -0.417173
1729 1 0.59352 0.05357 0.0395575 0.408159 -3.28451 -0.352159 0.0742338 -0.385188
1730 1 0.619298 0.0795887 0.0405684 0.365984 -3.3658 0.242629 -0.0399448 0.0523775
131 1 0.624677 0.0563843 0.0188072 0.594427 -3.32069 -0.158991 -0.136744 0.22435
136 1 0.650848 0.0805136 0.0211712 0.463156 -3.32502 0.0924935 0.324387 0.00128779
135 1 0.681892 0.0600393 0.02563 0.704241 -3.32241 0.266915 0.0132594 -0.41298
1733 1 0.651369 0.0581122 0.0459114 1.18605 -3.27062 -0.181321 -0.325285 -0.295041
133 1 0.657584 0.0582644 0.000791034 0.340191 -3.33603 -0.111781 -0.143893 -0.14773
134 1 0.6849 0.0845193 0.00166751 0.434557 -3.32073 -0.106765 -0.305081 0.354638
140 1 0.709464 0.0861471 0.0273669 0.739568 -3.34088 0.310528 -0.411424 -0.160201
137 1 0.716685 0.0628402 0.0060318 0.468776 -3.35891 -0.0517108 0.167605 -0.26564
139 1 0.744606 0.0647564 0.0287424 0.327602 -3.35631 -0.165546 -0.300529 -0.0951471
138 1 0.743453 0.0876522 0.0067253 0.30743 -3.31767 0.193007 -0.250099 0.177343
144 1 0.770062 0.0900918 0.0307014 0.59907 -3.2589 0.614177 -0.255745 0.0281726
141 1 0.779282 0.0661686 0.00971638 0.907019 -3.32227 -0.698504 -0.0657227 -0.745873
143 1 0.80206 0.0685992 0.0327072 1.36344 -3.23807 1.05799 0.068818 0.0887267
142 1 0.805977 0.0900025 0.010242 1.70475 -3.34451 -0.414007 0.704102 0.113949
145 1 0.8368 0.0717577 0.0141695 0.716749 -3.25665 -0.323513 -0.257567 0.100406
148 1 0.832424 0.0949457 0.0365976 1.19707 -3.25626 -0.658523 -0.19372 -0.76945
147 1 0.86219 0.0716628 0.037399 0.664886 -3.30058 0.431898 0.131392 0.031289
146 1 0.86273 0.0966914 0.0170295 0.576011 -3.32899 0.512631 0.112035 -0.360517
72 1 0.897222 0.0509838 0.0407829 6.97089 -3.33143 -0.347098 -0.249202 -0.614899
70 1 0.92861 0.0546695 0.0197094 7.10716 -3.32142 0.205007 -0.21992 0.117509
152 1 0.890237 0.0973481 0.0394889 0.361171 -3.3261 0.237837 0.140801 0.0684484
149 1 0.897532 0.074519 0.0188752 0.677784 -3.2967 -0.423782 0.399262 0.104037
151 1 0.923491 0.0742798 0.0432818 8.42498 -3.36875 0.453973 0.52691 0.0154681
153 1 0.95634 0.0808834 0.0235296 6.96963 -3.30082 -0.373638 -0.201766 0.368659
157 1 0.996824 0.0742316 0.0316752 1.133 -3.053 -0.648497 0.446636 0.00985452
30555 1 0.986054 0.0865893 0.0057342 10.4105 -3.20396 0.979865 -0.68535 -0.610063
30560 1 0.0157953 0.109401 0.00530101 8.88751 -3.2142 -0.133011 0.565277 1.0168
161 1 0.0500959 0.120678 0.037301 4.72663 -3.29126 0.546096 -0.0813591 -0.309065
30639 1 0.0456204 0.136083 0.00800402 7.41017 -3.30948 -0.2755 0.118357 0.390788
237 1 0.0133078 0.132442 0.0273697 5.69163 -3.3307 -0.251181 -0.226372 -0.48313
165 1 0.0571863 0.105026 0.00894721 4.8434 -3.31927 -0.22103 0.0980794 0.180224
167 1 0.0919153 0.113379 0.0407726 6.96867 -3.26908 -0.503687 0.414732 0.754866
166 1 0.0839928 0.129898 0.0150117 6.61585 -3.19167 0.399845 0.0263241 -0.776857
169 1 0.0996553 0.102461 0.0143179 4.725 -3.24718 0.496188 -0.651566 -0.771923
172 1 0.115612 0.1402 0.0442459 8.31488 -3.28213 0.618939 -0.664833 -0.0381253
171 1 0.132275 0.105077 0.0386406 0.997674 -3.26265 0.153682 0.240237 -0.116508
170 1 0.106932 0.120444 0.989542 2.2813 -3.35036 -0.299107 -0.0266234 -0.0189724
162 1 0.0768531 0.145721 0.037051 7.83985 -3.16092 -0.105971 0.550147 0.344035
175 1 0.172604 0.0970712 0.0328936 0.92411 -3.26351 0.23478 0.493006 -0.137134
176 1 0.12996 0.125 0.0146958 1.19999 -3.32145 -0.149144 0.445725 0.364121
180 1 0.172804 0.120438 0.0111752 0.423599 -3.34269 0.170384 -0.0117624 -0.123609
1774 1 0.15875 0.130109 0.0389989 0.438878 -3.34703 -0.159823 -0.198818 0.127384
184 1 0.216391 0.115224 0.00708769 0.942915 -3.26362 -0.18815 -0.0468634 -1.07617
1778 1 0.20138 0.122628 0.0320819 2.32656 -3.21337 -0.655338 0.475194 0.711333
1782 1 0.2418 0.12197 0.0287393 1.35758 -3.22253 0.239094 -0.400016 0.693316
188 1 0.257348 0.112214 0.00306493 1.00563 -3.33131 0.0583877 -0.192275 -0.525867
1786 1 0.281875 0.115309 0.0270053 0.768648 -3.27752 -0.128805 0.0112484 -0.255543
267 1 0.28398 0.136479 0.00386013 1.3773 -3.32477 -0.247528 0.16459 -0.307505
1869 1 0.3071 0.142811 0.0273557 1.41253 -3.315 0.258032 -0.264349 -0.140687
1790 1 0.31976 0.105349 0.0226729 6.67638 -3.24978 0.487486 0.223359 -0.56172
1873 1 0.349599 0.133519 0.0225313 8.67139 -3.35719 -0.364021 -0.175509 0.289291
1796 1 0.34711 0.108235 0.045282 3.16795 -3.25354 -0.0913107 0.14475 0.223779
1794 1 0.37891 0.109227 0.0269054 0.736754 -3.24965 0.166993 0.435901 -0.573009
275 1 0.381731 0.133421 0.00256803 0.837222 -3.29128 -0.594564 0.246317 -0.162384
200 1 0.40831 0.111364 0.00542332 2.13232 -3.32334 0.658368 -0.147749 0.0354684
1877 1 0.407537 0.133879 0.0274344 1.12032 -3.31015 -0.161134 0.345739 0.0377237
1798 1 0.439692 0.11517 0.0280545 1.44972 -3.32663 -0.184805 -0.254271 0.158898
279 1 0.436891 0.138968 0.00347565 1.92459 -3.28022 -0.330951 -0.0965438 0.703702
204 1 0.469553 0.116447 0.00793191 0.563 -3.31634 0.374943 -0.0717948 0.0848926
1881 1 0.465235 0.139959 0.0281247 1.1555 -3.32596 0.0642309 0.186804 0.470431
283 1 0.49873 0.143938 0.0092064 1.50985 -3.34424 -0.3877 -0.209899 0.284702
1802 1 0.493403 0.117937 0.0343034 1.95236 -3.28326 0.32865 0.094757 -0.95465
208 1 0.527775 0.121766 0.0140923 1.16536 -3.32281 -0.26186 -0.332753 -0.435557
1806 1 0.556719 0.122948 0.0347632 0.95127 -3.33927 -0.144613 -0.0426859 0.47491
207 1 0.561274 0.0988616 0.0149072 0.470746 -3.29171 -0.182076 0.0120719 0.226353
1885 1 0.522445 0.143243 0.0347293 0.91442 -3.319 0.118277 0.36325 -0.165402
1809 1 0.586409 0.100257 0.0388303 0.845056 -3.30609 0.236378 0.0696622 -0.0851518
211 1 0.619606 0.102938 0.0172026 0.855407 -3.27724 0.224737 -0.519255 0.620918
212 1 0.590173 0.123252 0.0171639 0.876597 -3.30505 -0.560363 0.462303 0.0261399
1810 1 0.616262 0.123834 0.0399067 1.17852 -3.33328 -0.281815 0.615135 0.171323
215 1 0.678979 0.105563 0.0241841 0.604092 -3.32187 0.206463 0.394678 -0.185428
1813 1 0.64796 0.104977 0.0421577 0.56741 -3.28269 -0.136834 -0.156887 0.213467
216 1 0.648892 0.127341 0.0215541 0.754435 -3.33224 -0.129751 0.317969 -0.380789
1814 1 0.6749 0.132299 0.0449256 1.43612 -3.31807 -0.151468 -0.715023 0.0821809
214 1 0.679205 0.130221 0.99944 0.854033 -3.29231 -0.0704464 -0.134773 0.684329
220 1 0.706814 0.130718 0.0267732 0.634683 -3.37942 -0.0738114 0.162636 -0.57649
217 1 0.711556 0.107817 0.0035332 0.594238 -3.31657 -0.0269223 0.672095 0.534637
219 1 0.738727 0.109384 0.0308972 1.30966 -3.23186 -0.380728 0.458763 -0.848258
218 1 0.738746 0.133703 0.00675197 0.371737 -3.36308 -0.198294 0.097526 0.0560236
224 1 0.766113 0.135657 0.0306374 0.2803 -3.33901 0.291874 0.143858 -0.203508
221 1 0.768715 0.111383 0.00968997 1.91236 -3.27194 0.570571 0.476806 -0.273291
223 1 0.79744 0.11452 0.0320999 1.05965 -3.3921 0.431009 0.0899061 0.0952022
222 1 0.801154 0.139817 0.0110259 0.653484 -3.33405 -0.253323 -0.174876 0.335961
228 1 0.831048 0.142018 0.0355028 1.51243 -3.31143 -0.779915 -0.0165622 -0.109147
225 1 0.832412 0.118016 0.0128613 0.492671 -3.28761 0.209293 0.0414991 0.951718
227 1 0.858758 0.11989 0.0372268 0.35234 -3.30273 0.331055 0.125358 0.0243746
226 1 0.860325 0.146123 0.015102 1.14672 -3.29129 0.19831 -0.690489 0.0965412
150 1 0.923351 0.101102 0.0218856 0.488533 -3.30479 -0.0935076 -0.0906076 -0.0653046
229 1 0.890995 0.123457 0.0189284 0.609634 -3.37679 0.215614 -0.0554479 -0.274452
231 1 0.918832 0.122785 0.0426002 0.523945 -3.28607 0.190205 0.268792 -0.236522
156 1 0.951714 0.101185 0.0463532 6.6446 -3.36734 -0.157113 0.266988 -0.176506
154 1 0.985999 0.10671 0.0271126 6.75463 -3.23857 -0.309791 0.263404 -0.608764
233 1 0.951056 0.125252 0.0217124 1.06668 -3.2909 0.0806824 0.79312 0.696644
235 1 0.979135 0.128151 0.0469159 6.94759 -3.35886 -0.237933 0.0656003 0.268724
30556 1 0.955513 0.104196 0.00265501 0.957945 -3.18732 -0.0352179 0.18911 -0.679571
30635 1 0.984496 0.132046 0.00301662 0.880589 -3.33145 -0.202918 -0.216558 0.236069
238 1 0.0386324 0.159727 0.0282757 3.17075 -3.24745 0.528221 -0.892775 -0.238236
30640 1 0.0127414 0.155932 0.00308828 0.689214 -3.30194 -0.168011 -0.0750564 0.560595
30719 1 0.039799 0.180421 0.00575501 0.401209 -3.26891 -0.283912 0.0132356 -0.481215
317 1 0.00662508 0.177877 0.0255601 0.343092 -3.29814 -0.244453 -0.0220258 -0.351365
30564 1 0.0748625 0.162259 0.0112761 7.34408 -3.245 -0.0348935 -0.368113 -0.0566978
241 1 0.0650235 0.184969 0.0270867 8.19321 -3.23323 0.475156 0.14302 1.16881
245 1 0.101843 0.188518 0.00964088 5.85644 -3.25018 -0.544395 0.114806 0.802398
247 1 0.103091 0.174359 0.0387149 1.793 -3.2624 0.101445 0.411603 -0.0358123
249 1 0.115849 0.156101 0.0184278 7.45611 -3.29078 -0.245045 -0.310854 -0.575053
251 1 0.142928 0.164265 0.0433828 6.08108 -3.29363 -0.238268 0.108073 0.106643
256 1 0.17051 0.188452 0.0438924 5.78441 -3.31721 -0.49203 -0.191093 0.0848948
250 1 0.140974 0.182093 0.0165291 6.73981 -3.31142 0.0969298 0.0135833 0.547967
255 1 0.15581 0.1512 0.0159188 0.797207 -3.32628 0.247279 -0.133534 -0.262228
253 1 0.130769 0.145952 0.990973 1.72721 -3.23622 0.609844 -0.0262023 0.687026
252 1 0.13131 0.200443 0.0417326 1.56946 -3.20407 -0.110604 -0.676393 -0.589063
259 1 0.198446 0.146576 0.0106305 0.391074 -3.29707 0.0387203 -0.302752 0.00631013
260 1 0.183475 0.175135 0.0133484 1.07379 -3.30257 -0.152218 0.70976 0.241216
264 1 0.224656 0.172974 0.0101668 0.308224 -3.31783 0.168168 -0.128869 -0.099262
1861 1 0.221635 0.150693 0.0346796 2.38548 -3.3434 0.450245 0.157496 0.208144
1857 1 0.181801 0.157279 0.039026 1.48983 -3.23467 0.257221 0.0317542 -0.184569
1858 1 0.209503 0.181057 0.0377085 0.94549 -3.32091 0.0590548 0.25121 0.0547978
263 1 0.239549 0.141906 0.0065711 0.402684 -3.3119 0.269714 0.282033 -0.161743
1865 1 0.264877 0.147795 0.0309728 1.10415 -3.30249 0.34757 -0.536291 -0.000723185
268 1 0.266453 0.167128 0.00609969 0.398037 -3.30943 0.273696 0.0918031 -0.228278
1866 1 0.291813 0.172467 0.0297404 0.802407 -3.25856 0.527985 -0.13619 0.315237
1862 1 0.251689 0.17602 0.0322931 1.36472 -3.26556 -0.529373 0.364717 0.545599
272 1 0.309738 0.164336 0.0043709 1.29522 -3.28887 -0.527712 -0.0634743 -0.489083
1870 1 0.338215 0.168355 0.0271676 2.90604 -3.3223 -0.290103 0.110715 -0.165519
351 1 0.330329 0.191211 0.00304994 3.32102 -3.28438 0.936832 -0.359405 0.156171
276 1 0.347623 0.157049 0.999703 7.26914 -3.27403 1.13108 0.0839842 0.0779737
355 1 0.374369 0.184459 9.23206e-05 7.20313 -3.31633 -0.613957 -0.329498 -0.0251577
1874 1 0.377214 0.156842 0.0247888 6.48258 -3.27369 -0.344087 0.0670744 -0.0659485
280 1 0.402437 0.160136 0.00151546 2.90626 -3.29204 0.838268 0.0171027 0.0183811
1957 1 0.401578 0.183203 0.0220265 8.21059 -3.2431 -0.459556 0.0325502 0.778948
359 1 0.431371 0.186933 0.00442045 1.26229 -3.2065 0.572606 -0.772106 -0.47994
1878 1 0.433572 0.160336 0.0266022 0.766589 -3.31971 -0.361321 0.0368874 0.109445
284 1 0.465069 0.162506 0.00690248 0.806319 -3.32247 0.280991 0.587316 0.142022
1961 1 0.458899 0.18645 0.0278414 0.980673 -3.31253 0.516028 0.18336 0.000557511
1882 1 0.49211 0.167678 0.032542 1.5544 -3.31763 -0.0360504 -0.524269 -0.478952
363 1 0.494191 0.188549 0.00705594 1.568 -3.31311 -0.525759 0.0543649 0.618263
287 1 0.557989 0.147422 0.0143866 1.34274 -3.24865 -0.711493 -0.684277 -0.186789
288 1 0.52511 0.167618 0.00995842 0.5798 -3.35023 0.0854278 0.182015 0.240741
1886 1 0.54937 0.168822 0.0348372 1.06057 -3.31935 0.101573 0.344248 0.280506
1965 1 0.518767 0.190692 0.0334709 0.371923 -3.34176 0.279981 0.291649 -0.0311081
367 1 0.556393 0.192393 0.0130958 3.14009 -3.26856 -1.37758 0.195142 0.418582
1889 1 0.580536 0.148379 0.0390203 1.37898 -3.2837 0.79268 -0.320043 -0.364071
291 1 0.615289 0.149781 0.0195394 0.387281 -3.35892 -0.176436 -0.172159 -0.071111
292 1 0.582518 0.170219 0.0158925 0.532 -3.25116 0.762599 0.27791 0.246901
1890 1 0.60926 0.172834 0.0420237 0.642478 -3.34665 -0.256161 0.146529 -0.694153
1893 1 0.640215 0.150926 0.0420278 0.747532 -3.31699 0.37962 0.0115375 0.134909
295 1 0.673822 0.153587 0.0224754 0.298874 -3.32942 0.178824 0.0281332 0.16917
296 1 0.64309 0.176004 0.0212499 0.845592 -3.34539 -0.0751687 -0.351367 -0.330631
293 1 0.647867 0.151045 0.999254 0.259656 -3.35715 -0.0133634 -0.122751 -0.299899
294 1 0.675428 0.175518 0.999659 0.554314 -3.34316 -0.106268 0.405246 0.0247356
299 1 0.735687 0.157995 0.0275371 0.494378 -3.32418 -0.447368 -0.239371 -0.258212
300 1 0.703053 0.179873 0.0227672 1.21455 -3.36952 -0.281738 -0.219696 0.355389
298 1 0.736189 0.181522 0.00455604 0.535908 -3.32153 -0.291823 -0.26987 0.0168156
297 1 0.70598 0.15477 0.00414643 0.861379 -3.33594 0.523697 0.057813 -0.143756
304 1 0.764447 0.181924 0.0291003 0.632441 -3.31656 -0.333851 0.0818939 -0.308633
303 1 0.797628 0.161748 0.0319718 0.84371 -3.34471 -0.366462 -0.0859738 0.225355
302 1 0.795432 0.185221 0.00957797 0.542227 -3.32642 -0.248633 0.125671 -0.0653856
301 1 0.765978 0.158746 0.00629375 1.58449 -3.37957 0.333835 0.235583 0.110831
308 1 0.822444 0.188426 0.0332857 0.421247 -3.32226 0.0280594 -0.231723 0.24481
305 1 0.828849 0.166506 0.012877 0.673089 -3.25026 -0.0308261 -0.497348 -0.00392402
307 1 0.855734 0.167412 0.0364771 0.237712 -3.33255 -0.125959 0.0979574 0.345058
306 1 0.854296 0.190535 0.0135457 0.235531 -3.32715 0.274961 0.210064 0.0965023
232 1 0.88777 0.145732 0.0409977 1.32819 -3.33284 -0.068791 -0.135507 -0.618445
230 1 0.919947 0.147299 0.0184601 0.807541 -3.39351 -0.179795 0.311855 0.332268
309 1 0.885596 0.169761 0.0147499 0.856677 -3.31227 0.407099 0.228936 0.248902
311 1 0.911552 0.172315 0.0383828 2.36193 -3.34461 0.438721 -0.66461 0.365668
236 1 0.944926 0.148686 0.044766 0.885083 -3.31839 0.138938 0.101695 -0.526837
234 1 0.975656 0.153067 0.0247897 1.80749 -3.31113 0.640215 -0.403336 -0.207463
313 1 0.946839 0.174555 0.0223926 0.903914 -3.2664 -0.553383 -0.50131 -0.422035
30715 1 0.980328 0.17579 0.00106374 0.424534 -3.3482 -0.0826718 0.113008 0.0442767
242 1 0.0659411 0.207114 0.00632648 1.02291 -3.27836 0.216323 0.149083 0.132973
318 1 0.0351203 0.204739 0.0253933 1.64515 -3.22981 -0.137307 -0.592445 0.607664
323 1 0.0619845 0.227203 0.0314899 0.719516 -3.30061 -0.238667 0.186668 -0.292077
321 1 0.0336358 0.227617 0.00606418 0.791128 -3.25593 0.113301 -0.239316 -0.464034
30720 1 0.00859599 0.200909 0.00113324 1.30367 -3.31703 -0.3894 -0.135109 0.744095
248 1 0.0940937 0.20849 0.0328015 6.10441 -3.30577 -0.180447 -0.538773 -0.324643
246 1 0.128041 0.212243 0.0130692 6.49358 -3.16999 -0.181311 -0.0580515 0.688109
325 1 0.0950105 0.229741 0.00972845 1.42136 -3.29354 -0.511027 0.131052 0.0989629
327 1 0.119019 0.232256 0.0359853 5.44735 -3.25547 0.12688 -0.0446023 -0.465489
329 1 0.150348 0.236769 0.0142289 7.57772 -3.22448 0.469285 0.185708 0.626858
331 1 0.157929 0.222124 0.0442926 3.47753 -3.11485 -0.248695 0.295973 -0.982584
333 1 0.169862 0.206038 0.0185239 6.13471 -3.36817 -0.116538 0.0051261 -0.0996363
336 1 0.180894 0.24517 0.0450058 7.4142 -3.18373 0.245599 0.256019 -0.136309
335 1 0.19579 0.211999 0.0469075 6.1059 -3.26711 0.223487 0.266126 -0.500068
339 1 0.211115 0.20287 0.0128712 1.09298 -3.28504 -0.585865 -0.00524116 0.519267
344 1 0.234202 0.228392 0.0131588 1.15836 -3.27376 0.393409 -0.307219 0.162263
334 1 0.191773 0.232607 0.018064 2.6922 -3.32165 0.450944 -0.390542 -0.153007
340 1 0.22122 0.237622 0.0424169 2.44162 -3.2878 -0.42024 -0.433718 0.114863
347 1 0.290866 0.194669 0.00681502 0.754503 -3.3005 -0.0114426 -0.368653 0.0066047
343 1 0.251128 0.199548 0.0094278 0.753006 -3.28675 0.101008 -0.276469 0.367276
348 1 0.277781 0.22443 0.0112722 0.60569 -3.28716 -0.570735 -0.260128 0.324434
1945 1 0.276942 0.200206 0.0363229 1.17866 -3.30069 -0.0435374 0.755827 -0.317259
1946 1 0.302239 0.226472 0.0358059 0.496097 -3.32721 -0.126573 -0.0604744 0.187774
1941 1 0.235679 0.205645 0.0394705 0.829836 -3.31349 -0.125892 0.468553 -0.455288
1942 1 0.260456 0.230474 0.0403175 0.948549 -3.31635 0.413989 0.125203 -0.235915
1953 1 0.361041 0.195601 0.0276578 2.34242 -3.30908 0.0660236 -0.789488 0.17045
1949 1 0.318975 0.198355 0.0317228 0.398979 -3.34415 -0.212796 -0.294202 -0.130082
352 1 0.316021 0.220477 0.00672766 1.66936 -3.25646 0.665958 0.0865876 0.344664
1950 1 0.343906 0.223211 0.0326941 0.298504 -3.25783 0.0231608 -0.046397 0.290926
356 1 0.360547 0.216168 0.00661577 1.67581 -3.22168 -0.0795995 -0.422545 -0.777056
1954 1 0.387413 0.220097 0.0291352 1.95373 -3.26216 0.301101 -0.568225 0.0405985
360 1 0.401182 0.207904 0.000353203 6.81107 -3.31573 0.202227 0.405727 0.219306
439 1 0.427832 0.234323 0.00116291 7.75548 -3.35134 0.195642 -0.233463 0.48149
1958 1 0.427444 0.208647 0.0250568 6.76426 -3.2706 -0.317452 0.727927 0.438244
364 1 0.459254 0.212157 0.00846686 2.39504 -3.28971 0.243405 -0.0640055 -0.542892
2041 1 0.452218 0.238515 0.0272596 7.90129 -3.26532 0.826557 -0.822087 -0.229118
1962 1 0.487294 0.211696 0.0308646 1.12721 -3.25894 -0.151642 0.195217 0.215509
443 1 0.48564 0.236244 0.0073965 0.569031 -3.33929 0.17528 0.0819817 0.123535
2045 1 0.514079 0.241545 0.0307403 2.64766 -3.29436 -0.307325 -0.679469 0.540416
368 1 0.517533 0.213953 0.0116593 1.53359 -3.32146 0.630577 0.274701 -0.30537
1966 1 0.545877 0.218719 0.0341713 1.46095 -3.32985 -0.378702 -0.531282 0.190405
447 1 0.548438 0.240562 0.0119185 0.703991 -3.32536 -0.513622 -0.163662 -0.138632
1969 1 0.577267 0.194891 0.0401666 1.58546 -3.34613 0.0693541 -0.0375278 -0.615277
371 1 0.607992 0.196032 0.0170368 1.1927 -3.32864 0.333882 -0.081243 0.643599
372 1 0.577708 0.218153 0.0154955 0.617208 -3.30515 0.376496 0.165483 -0.00225954
1970 1 0.606718 0.220222 0.0391696 1.02843 -3.34868 -0.522832 -0.629037 -0.000125092
1973 1 0.636871 0.196871 0.0417151 0.541599 -3.31967 -0.258039 0.390747 0.124734
375 1 0.669667 0.201507 0.0202929 1.10615 -3.28521 0.272763 -0.525695 0.472116
376 1 0.636212 0.219569 0.0179658 0.835551 -3.31005 -0.169786 0.302855 0.294016
373 1 0.644456 0.197617 0.997863 0.722388 -3.31292 -0.514631 -0.246305 -0.505251
374 1 0.667818 0.223195 0.998852 0.456845 -3.30965 0.377841 0.326682 -0.187731
379 1 0.730223 0.202831 0.0277633 1.39902 -3.33534 -0.271085 0.242947 -0.27287
380 1 0.693845 0.22682 0.0242286 1.49947 -3.3321 0.466281 -0.332517 -0.257024
378 1 0.730308 0.226494 0.00302793 0.594251 -3.30848 -0.515683 0.27536 0.0218491
377 1 0.702041 0.203817 0.000890495 0.921512 -3.36477 0.0298577 -0.398094 0.311055
384 1 0.755093 0.227926 0.0265021 1.14937 -3.26277 0.608948 0.112562 0.492993
381 1 0.761715 0.206779 0.00631594 0.461775 -3.29944 0.525269 -0.192412 0.157824
383 1 0.789536 0.207737 0.0318251 0.394096 -3.30149 -0.148367 -0.138782 -0.649743
382 1 0.790661 0.231198 0.00777453 0.368947 -3.30405 -0.144026 0.14322 0.357149
388 1 0.815682 0.233037 0.0338028 0.473273 -3.37654 0.0293181 0.15534 -0.341815
385 1 0.820049 0.211084 0.0100501 1.0085 -3.30767 0.734316 -0.00778037 0.721969
387 1 0.849745 0.212737 0.035941 0.326743 -3.33732 -0.114955 -0.312058 -0.301568
392 1 0.877108 0.235579 0.0375207 0.764913 -3.32875 -0.164089 0.162834 -0.13538
386 1 0.848117 0.235307 0.012515 0.399035 -3.33494 -0.208783 -0.0199754 0.526693
312 1 0.881912 0.192416 0.0386221 0.300711 -3.33751 -0.326912 0.064483 -0.237363
310 1 0.915655 0.194993 0.0178867 0.746517 -3.27157 -0.612609 -0.118584 0.0411532
389 1 0.881972 0.213712 0.0143734 1.06998 -3.38061 -0.00930041 0.433736 0.375556
391 1 0.909049 0.216559 0.0418349 0.586119 -3.2099 -0.259813 0.306042 -0.767283
393 1 0.939383 0.219829 0.0211284 1.01643 -3.30675 0.637541 0.213022 0.154426
316 1 0.938507 0.197406 0.042932 1.43068 -3.22603 1.19803 -0.548112 -0.325267
314 1 0.973751 0.19713 0.02301 0.813675 -3.26878 0.513687 0.682223 0.320475
397 1 0.00415477 0.222513 0.0243478 1.23594 -3.3019 -1.10274 0.547126 0.040843
30795 1 0.973488 0.22345 0.00114351 0.982529 -3.33452 0.318624 -0.406544 0.207038
324 1 0.0277688 0.249344 0.0293971 1.06919 -3.29325 0.185884 -0.412139 -0.143593
322 1 0.0586993 0.250013 0.0106858 1.76471 -3.29056 0.660036 0.439526 -0.42618
403 1 0.0545957 0.273012 0.0304983 0.301212 -3.3278 0.245584 0.0676928 0.0041164
401 1 0.0250877 0.271043 0.0065105 1.25952 -3.25985 0.933961 0.357653 -0.257828
328 1 0.0875321 0.252065 0.0328848 0.262402 -3.3024 -0.312183 0.234918 0.199238
326 1 0.115295 0.25548 0.0131978 2.32845 -3.21924 1.13963 0.118225 -0.404602
405 1 0.0877513 0.275684 0.00962854 0.762285 -3.30188 -0.384506 0.459976 0.345209
407 1 0.114665 0.278762 0.0341431 0.683001 -3.34775 -0.187049 -0.0937031 -0.0111476
332 1 0.144325 0.256288 0.035994 7.72177 -3.30437 -0.00909633 0.0116551 0.455598
330 1 0.180938 0.261561 0.0170633 6.48232 -3.22835 -0.0574403 -0.362044 -0.180921
409 1 0.147639 0.279377 0.0151556 1.13268 -3.32359 -0.363416 0.483136 -0.0835287
411 1 0.173027 0.277979 0.0397344 8.56816 -3.20492 -0.749659 1.03212 0.193912