ITEM: TIMESTEP
5500
ITEM: NUMBER OF ATOMS
32000
ITEM: BOX BOUNDS pp pp pp
2.0950634965421413e+00 7.8904936503457904e+01
-1.0482772423221149e+00 8.2048277242322087e+01
-1.0499446534643084e+00 8.2049944653464166e+01
ITEM: ATOMS id type xs ys zs c_csym c_peratom fx fy fz
8 1 0.0503356 0.0264409 0.02601 1.15669 -3.34588 -0.762364 -0.485189 -0.397123
1602 1 0.0225933 0.0241884 0.0512892 1.09873 -3.27804 0.858287 0.224501 -0.35025
1 1 -0.000900422 0.00160262 0.00177614 1.25752 -3.28698 -0.09957 -0.462687 -0.275179
4 1 0.000768629 0.0247027 0.0261976 0.569007 -3.33485 -0.375163 0.265077 -0.109583
2 1 0.0244308 0.024802 -0.000490003 0.279191 -3.3576 0.384141 -0.114431 0.130788
5 1 0.0486723 -0.00158787 -0.0016953 0.811142 -3.35823 0.120343 0.205108 0.471968
12 1 0.0990849 0.0245398 0.0247308 0.198872 -3.34149 -0.101067 0.206153 0.0781798
1689 1 0.0993887 0.0494116 0.0505021 0.289355 -3.36035 0.0821155 -0.18594 0.0519797
7 1 0.0736047 -0.000893399 0.025126 0.37635 -3.28921 -0.298615 0.203334 -0.239866
16 1 0.148866 0.024516 0.0245853 0.531008 -3.30266 -0.437483 0.518158 0.092459
91 1 0.123237 0.0491812 0.0257425 0.376729 -3.32583 -0.079355 0.0216388 -0.457662
93 1 0.14913 0.04983 -0.000213401 0.287566 -3.31653 -0.157726 0.431583 0.187101
20 1 0.198587 0.0263367 0.0258196 0.403994 -3.36589 -0.0420072 -0.0592566 -0.00804729
95 1 0.173156 0.0511326 0.0261571 0.650078 -3.3766 0.119594 -0.0276883 -0.0118373
24 1 0.247254 0.0232364 0.0257928 1.08914 -3.28712 0.58779 0.814066 0.34583
1618 1 0.222175 0.025679 0.0522607 1.40919 -3.26641 0.471412 -0.261357 -0.694874
1622 1 0.274478 0.0249116 0.0514226 0.578174 -3.36065 0.0181214 0.123426 -0.518786
22 1 0.275458 0.0239273 -0.0013085 0.645173 -3.3146 -0.0906962 0.139784 0.385356
23 1 0.276679 0.000124134 0.025853 0.732083 -3.33933 -0.396694 0.241114 -0.0434422
18 1 0.223442 0.0214273 0.0018223 2.5077 -3.26006 -0.399017 1.05708 -0.448259
28 1 0.299467 0.0261125 0.0242905 0.464789 -3.27804 0.338569 -0.40595 0.327613
1626 1 0.324699 0.0281484 0.0507753 1.03156 -3.33405 -0.00792501 -0.692815 0.150596
26 1 0.324361 0.0265625 0.000326854 0.559019 -3.34346 0.0603137 -0.215332 -0.359794
32 1 0.346719 0.0250293 0.0250029 1.64706 -3.26511 0.725727 -0.0748069 0.080532
111 1 0.373545 0.0484155 0.0262514 1.17889 -3.32108 -0.138128 0.417619 -0.0361659
1630 1 0.373312 0.0260231 0.0494894 0.534431 -3.30526 0.0377425 -0.23796 0.072696
30 1 0.374033 0.0240047 0.000458981 0.701558 -3.29343 0.350471 0.382227 -0.0672925
1629 1 0.348884 0.00130196 0.0487819 0.486594 -3.35229 -0.17745 0.0895754 0.538394
31 1 0.375272 0.00183242 0.0258381 0.709739 -3.29639 -0.288535 -0.311585 -0.160488
29 1 0.349551 0.00160108 0.000521154 0.379507 -3.3484 -0.555828 -0.380626 0.0455377
36 1 0.400376 0.0242795 0.0234455 0.651756 -3.33771 0.104707 0.326711 0.044568
1634 1 0.423507 0.0242144 0.04845 0.821431 -3.32221 0.285285 0.531035 0.200731
40 1 0.450546 0.0247117 0.0226774 0.6838 -3.29805 -0.387105 0.255857 0.281622
44 1 0.500309 0.0246075 0.0247897 0.297689 -3.2841 -0.0105327 0.293888 -0.211547
39 1 0.475658 0.00193558 0.0248478 0.757824 -3.26513 -0.397058 -0.227454 -0.100131
37 1 0.451114 0.000104781 -0.00194862 0.524862 -3.28431 -0.174587 -0.183757 0.0724216
1721 1 0.49965 0.0484933 0.0481834 0.574572 -3.38791 -0.0436475 0.461007 0.123496
38 1 0.474705 0.0247128 -0.0023817 0.417442 -3.31721 0.342677 0.116999 0.376778
121 1 0.500091 0.0489276 -0.00144896 0.134632 -3.33842 0.0410158 0.0679168 0.00895439
48 1 0.551386 0.0240486 0.0228491 0.848585 -3.27824 -0.549338 0.297258 0.442578
42 1 0.524412 0.024517 -0.000426683 0.399959 -3.32528 0.238511 0.211525 -0.111947
1641 1 0.501029 0.0015545 0.0493227 0.582605 -3.31613 -0.101059 -0.0332412 0.363484
41 1 0.499848 0.000110092 -0.000586343 0.188005 -3.33751 -0.211782 0.0380921 -0.0459037
43 1 0.524919 0.000501943 0.0241033 0.215855 -3.33477 0.090327 -0.196471 0.172984
1645 1 0.549776 -0.000272141 0.051292 0.808878 -3.36002 0.169675 0.0299555 -0.42995
52 1 0.597205 0.0246446 0.025371 0.93145 -3.24315 0.799481 0.376253 -0.833771
1649 1 0.599402 0.00172887 0.0498945 0.390292 -3.29217 0.0786367 -0.629855 0.312517
1650 1 0.624503 0.0264353 0.0489951 0.334867 -3.32066 0.153029 0.0900223 0.0984248
51 1 0.622842 0.00163889 0.0257894 0.888686 -3.30982 0.464547 -0.226752 -0.603702
56 1 0.651745 0.0250404 0.0241335 0.952016 -3.29118 -0.705012 0.577689 -0.0103094
1653 1 0.648317 0.000760434 0.0486162 0.561979 -3.27807 0.372492 0.0116764 -0.0576876
53 1 0.648855 0.00103812 -0.000133573 0.288805 -3.35239 0.0518836 -0.000184907 -0.212091
55 1 0.673261 0.000869381 0.0244469 0.468 -3.29112 0.470524 -0.399775 -0.164219
54 1 0.675395 0.0255944 -0.000948967 0.232577 -3.33996 -0.180257 -0.00942836 -0.212505
60 1 0.700479 0.0248234 0.0257412 0.597233 -3.35155 -0.0801751 0.364034 -0.190145
1657 1 0.700261 0.000163219 0.049439 0.389852 -3.29639 -0.27503 0.193602 -0.181504
137 1 0.699487 0.050042 -0.00123698 0.620545 -3.31316 -0.273409 0.224938 0.210892
57 1 0.700764 0.00246882 -0.000244331 0.747728 -3.32626 -0.387366 -0.444329 -0.270004
1658 1 0.72589 0.0246146 0.0504867 0.835415 -3.32278 -0.166565 0.282807 -0.344232
64 1 0.74971 0.0269927 0.0252676 0.52464 -3.35451 0.00841774 -0.0882848 -0.0755867
143 1 0.775855 0.0499828 0.0269019 1.34682 -3.33007 -0.313874 0.130358 -0.885338
62 1 0.774207 0.0267667 0.00040553 0.527672 -3.32537 -0.16018 -0.0577594 0.231248
59 1 0.724629 0.000688576 0.0232683 0.669105 -3.23421 -0.2825 -0.0350769 0.668052
68 1 0.801743 0.0258551 0.0246155 0.397122 -3.29584 -0.33348 0.152942 -0.0136017
147 1 0.82438 0.0507109 0.0225023 0.405466 -3.21251 0.182847 0.202365 0.608504
66 1 0.825864 0.0263599 -0.00130395 0.559208 -3.29928 -0.572139 -0.217761 -0.182248
67 1 0.825359 0.00175656 0.0245885 0.157702 -3.30051 -0.000205297 0.197602 -0.0999556
72 1 0.8493 0.0282979 0.022636 1.44168 -3.29126 0.4764 -0.769438 0.196665
1749 1 0.849715 0.0493567 0.0472713 1.42591 -3.32312 -0.0481418 0.75486 0.347808
149 1 0.849176 0.0509006 -0.00133591 0.25319 -3.31562 0.387506 0.147458 -0.19473
70 1 0.876905 0.0252456 -0.000804933 0.803757 -3.34004 -0.802847 -0.168078 0.241013
69 1 0.848883 0.00123914 -0.000924781 0.481251 -3.29867 0.58867 0.147968 0.110194
76 1 0.898953 0.0261114 0.0256213 0.99589 -3.3335 0.306478 -0.379944 -0.0588134
1674 1 0.926159 0.024848 0.0507213 0.8464 -3.34316 -0.487696 0.21225 -0.554656
80 1 0.950794 0.0247182 0.0250436 0.313046 -3.34893 -0.433122 0.161069 0.207969
159 1 0.974846 0.0501253 0.0277767 1.1298 -3.32001 0.274735 -0.384395 -0.809701
79 1 0.974562 -0.000237469 0.0256351 0.137511 -3.31675 0.225903 -0.088115 -0.252153
157 1 0.949773 0.0507096 0.00184678 0.712858 -3.31347 0.292712 -0.209832 -0.438104
83 1 0.0233805 0.0517044 0.0243468 1.00463 -3.25627 0.671617 -0.968669 0.379715
1685 1 0.0508085 0.050047 0.0497113 0.719967 -3.31831 -0.535956 -0.380694 0.200947
1682 1 0.0265366 0.0752702 0.0508793 0.914419 -3.31476 -0.423061 -0.154117 -0.0155087
88 1 0.0471998 0.0749992 0.0235961 0.981197 -3.30038 0.524175 0.189755 0.258195
84 1 8.19836e-05 0.0739024 0.0247178 0.894644 -3.22443 -0.159717 0.603926 0.440494
1761 1 -0.000954155 0.0991306 0.0509449 0.968794 -3.32327 0.504988 0.0748287 -0.0268649
87 1 0.0732689 0.0503943 0.0232092 0.861273 -3.32149 0.506678 0.0235967 0.309301
92 1 0.0987297 0.0754648 0.0272244 1.02283 -3.30726 0.0335398 -0.196084 -0.669262
169 1 0.0993886 0.0989155 0.000409665 0.329245 -3.2853 -0.22314 0.149037 0.392601
96 1 0.14823 0.074922 0.0264374 0.608591 -3.34162 0.329767 0.0387271 -0.594155
1690 1 0.124717 0.0757511 0.0501444 0.721047 -3.26888 -0.456907 -0.0324653 0.173544
90 1 0.122252 0.0747319 0.00162573 0.589585 -3.34678 0.62946 -0.277204 -0.112588
100 1 0.199617 0.0753084 0.0216459 2.20494 -3.28179 -0.228039 -0.184374 0.782058
99 1 0.224206 0.0507199 0.0241097 0.761558 -3.33784 -0.2241 -0.379198 0.11574
103 1 0.275377 0.0481056 0.0236296 0.780597 -3.32689 -0.831874 0.542101 0.370642
101 1 0.249131 0.0472332 -1.59136e-05 0.935509 -3.34995 0.198529 0.248466 0.00946965
104 1 0.248796 0.074882 0.0244689 0.380686 -3.31644 0.373913 -0.112108 -0.055153
1781 1 0.249378 0.0979991 0.050145 0.510012 -3.29735 -0.442724 0.463149 -0.13586
107 1 0.325812 0.0500917 0.0254797 0.883138 -3.2988 -0.326737 0.296758 -0.0434516
108 1 0.299975 0.0743837 0.0237326 0.251335 -3.35006 -0.186611 -0.0560225 0.100496
1785 1 0.298456 0.098991 0.0484803 0.428838 -3.26526 -0.0679784 0.248655 0.282567
1706 1 0.323023 0.0773325 0.050509 0.876392 -3.29158 0.355738 -0.517964 -0.309478
106 1 0.32549 0.0729236 -0.00174814 1.20416 -3.27689 -0.186265 0.565588 0.274649
105 1 0.299456 0.0500172 7.52257e-05 0.329291 -3.28511 0.0775754 -0.0716829 -0.279923
112 1 0.347483 0.074898 0.0230118 2.37039 -3.34022 0.55939 0.241464 0.869772
1789 1 0.350736 0.099869 0.049758 0.744135 -3.34371 -0.278592 0.481315 -0.278274
191 1 0.376111 0.0996545 0.0257935 0.777198 -3.28831 -0.744817 -0.00138383 -0.325278
189 1 0.350315 0.0999215 0.00111337 0.858199 -3.34094 -0.140456 -0.122345 -0.289753
115 1 0.425265 0.0501687 0.026614 1.17046 -3.31643 -0.0902793 -0.318217 -0.690196
116 1 0.400052 0.072427 0.0249263 1.19933 -3.29773 0.00331298 0.616954 0.232272
1793 1 0.398879 0.0994528 0.0490415 0.417278 -3.28334 0.37652 0.151483 0.344607
119 1 0.474033 0.0486064 0.0223992 0.752774 -3.29924 0.272554 0.212353 0.334217
120 1 0.451222 0.0739029 0.0257178 0.975568 -3.30966 -0.094922 0.420852 -0.614552
124 1 0.499199 0.0733673 0.0223833 0.868465 -3.32581 0.324695 0.0638408 0.618899
123 1 0.525786 0.0489576 0.0231061 0.401987 -3.33896 -0.108196 0.245711 0.273552
1725 1 0.550597 0.0492462 0.0494051 0.384763 -3.35618 0.0762298 0.487916 0.192858
1722 1 0.525674 0.074404 0.0499074 0.361512 -3.39144 -0.168605 0.0417789 -0.227294
203 1 0.524533 0.100199 0.0244399 0.357949 -3.33255 0.274383 -0.451345 0.0862662
128 1 0.549404 0.0758246 0.0250928 0.439868 -3.36778 0.216992 -0.00841203 -0.153066
125 1 0.551558 0.0507873 0.0005591 1.1382 -3.29066 -0.567665 0.143515 -0.360021
127 1 0.574535 0.0495451 0.0246058 0.313314 -3.29541 0.256245 0.517941 0.117354
1729 1 0.59934 0.0499716 0.0498738 0.29881 -3.33304 -0.0500428 0.423517 -0.172682
132 1 0.599303 0.0768152 0.0256559 0.588429 -3.34056 0.313182 -0.468141 -0.116659
126 1 0.576448 0.0753696 0.000220638 0.439727 -3.30977 -0.523884 0.16277 0.0548242
131 1 0.624626 0.0497 0.0251435 0.250302 -3.37262 -0.0885743 0.155945 -0.0633891
211 1 0.624466 0.101415 0.0247084 0.525075 -3.27402 -0.0121532 -0.637163 -0.106884
136 1 0.649186 0.0752605 0.0235306 0.554387 -3.31548 0.0731861 -0.0824719 0.196573
135 1 0.676696 0.0506717 0.025765 0.680432 -3.38098 0.0227245 0.170394 -0.332858
1734 1 0.673908 0.0764041 0.0495349 0.614933 -3.27681 0.335913 -0.357465 -0.296932
140 1 0.701679 0.0791004 0.025735 2.51527 -3.32763 -0.232432 -0.719205 0.114064
139 1 0.724295 0.0508664 0.023761 0.707494 -3.37751 -0.0214859 -0.00675767 0.327502
141 1 0.751274 0.051163 -0.00232633 1.41669 -3.31006 -0.394633 -0.0740216 0.846878
144 1 0.75169 0.0755809 0.024011 0.384458 -3.24965 -0.281398 -0.641893 0.371908
1742 1 0.7767 0.0765117 0.0491078 0.521618 -3.34449 -0.119973 -0.297298 0.360104
145 1 0.800808 0.0509475 -0.000559579 0.462003 -3.30093 -0.584613 0.107152 0.0580218
148 1 0.800663 0.0747252 0.0243983 0.549731 -3.29189 -0.395942 0.326135 -0.248161
225 1 0.799873 0.101999 -3.109e-05 0.528206 -3.35584 -0.132421 -0.0951198 0.18858
227 1 0.826163 0.0990363 0.0239599 0.989843 -3.31131 -0.231944 0.605734 -0.138381
1746 1 0.824317 0.0763478 0.0485634 0.412079 -3.36013 0.249524 -0.617619 0.49022
1825 1 0.800768 0.100849 0.0475918 0.769796 -3.31024 -0.0410536 0.12465 0.325438
151 1 0.876211 0.0517539 0.0237531 0.700315 -3.2773 -0.586702 -0.381486 0.218036
152 1 0.849757 0.07509 0.0228424 0.535569 -3.2776 -0.218473 -0.134248 0.660111
1750 1 0.874558 0.076347 0.0492893 0.294524 -3.37661 -0.305488 -0.0162781 0.0841097
150 1 0.873638 0.0768915 0.000862163 0.814485 -3.26316 0.583987 -0.432008 -0.452633
155 1 0.924178 0.0489943 0.0232749 0.991269 -3.2625 0.171932 -0.0235791 0.261279
156 1 0.900072 0.0747236 0.0249978 0.291931 -3.24115 -0.138759 0.672655 -0.185063
235 1 0.924997 0.0995249 0.0247341 0.253031 -3.32688 -0.0334565 0.353271 -0.182862
1754 1 0.925761 0.0741187 0.0485979 0.824368 -3.24349 0.081406 0.951773 0.515161
153 1 0.898176 0.0501462 -0.0011584 0.914088 -3.29199 0.42583 0.398419 -0.0345205
160 1 0.949066 0.0751762 0.0242379 0.527776 -3.27247 0.259113 0.0416269 0.0130655
1758 1 0.972558 0.0745091 0.0489292 1.48025 -3.26157 0.57748 0.575087 0.430522
163 1 0.0242818 0.101703 0.0274632 1.33557 -3.35651 -0.0932721 -0.304196 -0.407245
168 1 0.0513586 0.124511 0.0243656 0.620073 -3.31383 -0.419428 0.637213 0.229377
1762 1 0.0271692 0.124635 0.0523502 0.950277 -3.31337 -0.501742 0.053696 -0.59698
167 1 0.0733404 0.10015 0.0245687 0.525673 -3.29392 0.415981 -0.557405 0.183688
172 1 0.0997333 0.123876 0.0272044 1.03113 -3.31244 -0.362945 0.339294 -0.572958
171 1 0.123707 0.0998484 0.025648 0.28214 -3.30423 -0.0220025 -0.15989 -0.0311833
176 1 0.147313 0.124392 0.0221706 1.80711 -3.23332 0.237902 0.272621 0.929818
251 1 0.12389 0.150836 0.0251717 0.702019 -3.26443 -0.186158 -0.205463 -0.325648
173 1 0.147339 0.099263 -0.000662027 0.470768 -3.33894 0.358177 -0.406302 0.0202761
170 1 0.123645 0.124854 -0.000424951 0.46797 -3.29232 -0.0274951 -0.0352659 -0.189944
175 1 0.172652 0.101206 0.0245042 0.718574 -3.31757 0.49209 -0.402638 -0.0805899
179 1 0.223523 0.0987662 0.0245493 0.526891 -3.33782 0.348209 0.320058 0.0360451
180 1 0.199072 0.125616 0.0233375 1.16363 -3.31526 -0.199703 -0.223603 0.977938
1774 1 0.173309 0.125645 0.0510451 0.794253 -3.3344 0.362987 -0.0191321 -0.423016
183 1 0.273826 0.100381 0.02406 0.417169 -3.28012 0.0113437 -0.875278 -0.176532
184 1 0.249431 0.123637 0.0252414 0.403091 -3.28746 -0.343842 0.0835252 0.174395
182 1 0.274012 0.125068 -0.000871469 0.511413 -3.26906 -0.0238593 0.0140812 0.305505
178 1 0.224418 0.123546 0.00226704 0.978656 -3.30756 0.129765 0.113224 -0.533406
187 1 0.322408 0.0994914 0.0229947 1.12754 -3.31231 0.587023 0.134749 0.453154
188 1 0.296632 0.123621 0.0245879 1.12878 -3.27013 1.03958 0.371511 -0.178041
1865 1 0.29882 0.149269 0.0500053 0.299616 -3.33975 -0.129403 -0.353761 -0.160672
1786 1 0.323528 0.12407 0.049155 0.304126 -3.38497 0.12267 -0.0647728 0.0163378
265 1 0.301117 0.148458 -0.00127663 1.1883 -3.32224 -0.500406 0.383865 0.633558
186 1 0.326422 0.124852 0.000712601 1.46168 -3.28306 -0.910255 -0.459544 -0.450015
192 1 0.34904 0.124427 0.0246561 0.302407 -3.31746 0.33268 -0.243646 0.337355
190 1 0.375177 0.125395 -0.00131422 0.639055 -3.32381 -0.206071 0.0231053 0.278658
195 1 0.426453 0.0985169 0.0233104 1.44462 -3.36593 -0.466387 0.347659 0.305003
196 1 0.398713 0.125624 0.025208 0.692326 -3.28424 0.179352 -0.354743 -0.734027
1873 1 0.400383 0.14783 0.0485084 0.919425 -3.26349 -0.0397874 1.17912 0.0162014
194 1 0.425331 0.126567 0.000273316 0.633504 -3.28215 -0.414042 -0.522321 -0.202658
1797 1 0.44894 0.0997884 0.0500314 0.676227 -3.28631 0.318751 0.408047 -0.571559
199 1 0.476926 0.100374 0.0245775 0.641234 -3.38402 -0.389902 -0.0487602 -0.0642644
1801 1 0.500667 0.100292 0.0498857 0.346778 -3.27467 0.0510939 -0.190792 -0.497299
200 1 0.449738 0.125491 0.0245512 0.449971 -3.32274 0.216344 -0.4682 0.208669
1798 1 0.47527 0.126146 0.0497266 0.747037 -3.3494 -0.255973 -0.489057 -0.189677
1805 1 0.551228 0.101056 0.0517768 0.735188 -3.32706 -0.278236 -0.206374 -0.266976
204 1 0.502183 0.124312 0.0242479 0.586031 -3.29666 -0.580805 0.156591 -0.0310191
283 1 0.525829 0.148787 0.0242753 0.564204 -3.3473 -0.135679 0.411153 0.0803737
1802 1 0.525293 0.124695 0.0503201 0.204035 -3.32037 0.15705 0.241897 -0.226196
208 1 0.550044 0.124389 0.0237878 0.637718 -3.30228 -0.0861683 0.255915 0.358743
207 1 0.575054 0.101216 0.0269936 0.599299 -3.28507 -0.0677485 -0.143814 -0.330405
1809 1 0.600845 0.100009 0.0515802 0.650322 -3.34879 -0.25722 0.353831 -0.0121666
1806 1 0.573766 0.127553 0.0510851 1.23422 -3.33377 0.612256 -0.506842 0.0562096
212 1 0.598901 0.125084 0.0258647 0.360702 -3.29261 -0.174958 0.225328 -0.126062
1813 1 0.650746 0.0992571 0.047191 1.21369 -3.3028 -0.186833 0.631292 0.490359
291 1 0.625567 0.148657 0.0256172 0.864934 -3.32844 -0.128071 0.694691 -0.289996
1810 1 0.624495 0.124491 0.0481788 1.35052 -3.26179 0.180831 0.109584 0.87694
216 1 0.649037 0.125215 0.0251019 0.430113 -3.27009 0.659267 0.062815 -0.228431
215 1 0.675805 0.101622 0.0226129 1.02191 -3.27794 -0.108813 0.174215 0.645016
1817 1 0.699928 0.101505 0.0507212 1.18239 -3.30379 0.489995 -0.0635353 -0.635321
217 1 0.701524 0.101571 0.000376662 0.466111 -3.27654 0.319885 -0.193728 0.0654819
1814 1 0.675833 0.126383 0.0477884 0.758276 -3.34582 -0.165285 -0.200363 0.17498
220 1 0.702598 0.124716 0.0241962 1.04337 -3.32127 -0.373921 0.102912 0.201206
219 1 0.729076 0.0996673 0.0238692 1.82744 -3.25578 -0.805391 0.515757 0.346713
223 1 0.77409 0.100859 0.0248661 0.430828 -3.30149 0.451173 0.286936 0.0561722
224 1 0.750797 0.126547 0.0252487 0.543522 -3.32695 0.0490379 -0.318429 0.0401596
1901 1 0.752467 0.149769 0.0508147 0.699889 -3.33365 -0.279009 0.433054 -0.366135
228 1 0.800169 0.125926 0.0250917 0.334055 -3.36785 0.0433888 -0.298613 -0.126713
307 1 0.825161 0.150029 0.0247318 0.340123 -3.35558 0.262104 0.0954417 0.0980388
1826 1 0.824901 0.126382 0.0492751 0.235886 -3.31565 0.00131804 0.179189 0.00594558
226 1 0.827361 0.124428 0.000770585 0.898243 -3.30715 -0.654536 0.410862 0.0410636
231 1 0.873863 0.100008 0.0251062 0.55709 -3.34082 0.385879 0.154371 0.251239
229 1 0.851331 0.102198 -0.000296193 1.10749 -3.20756 -0.347605 -0.609359 0.210257
232 1 0.851279 0.125775 0.0269581 1.33584 -3.30218 -0.350198 -0.0414327 -0.483516
233 1 0.899878 0.100138 0.00043959 0.176891 -3.38072 0.06425 0.164821 -0.0862295
236 1 0.900868 0.125508 0.0241756 0.261345 -3.35271 -0.0888783 0.0395529 0.00904214
315 1 0.925965 0.149841 0.0255255 0.317924 -3.3339 -0.269946 -0.115429 -0.0953857
239 1 0.976986 0.0986562 0.0254054 1.2142 -3.30495 -0.438758 0.444246 0.124316
1837 1 0.949911 0.101276 0.0482407 0.712796 -3.32345 0.239674 -0.262818 0.359614
164 1 1.00093 0.126872 0.0257614 0.84713 -3.29542 -0.0784436 -0.324104 0.166295
240 1 0.950725 0.124525 0.0244649 0.307372 -3.35232 -0.0593279 0.0724001 -0.0301561
319 1 0.97469 0.149833 0.0251068 0.479029 -3.33823 0.293486 0.231102 -0.0875958
243 1 0.0272728 0.150859 0.0256034 0.478907 -3.34249 0.0801714 -0.239557 -0.29091
248 1 0.0516843 0.174898 0.0240065 0.290724 -3.28336 -0.509686 0.0638462 -0.0633462
244 1 0.00155024 0.175035 0.0246828 0.463643 -3.34341 -0.23968 -0.0523338 -0.326854
1925 1 0.0510293 0.200881 0.0491201 0.492092 -3.31387 -0.329623 0.068867 0.169237
247 1 0.0762844 0.151396 0.0242784 0.654014 -3.30998 -0.381875 -0.496767 0.270486
252 1 0.100141 0.175913 0.0251201 0.262363 -3.2892 0.134665 -0.0746437 -0.360355
327 1 0.0753239 0.199106 0.0234164 0.860726 -3.261 -0.0932639 0.616918 0.383148
249 1 0.099723 0.148092 0.00145761 1.06081 -3.26208 0.310467 0.496726 -0.267221
246 1 0.0756235 0.175898 -0.0015509 0.631092 -3.25992 0.172722 -0.586465 0.280612
329 1 0.0990037 0.199686 0.000454656 0.366888 -3.30139 0.581116 0.314775 -0.309803
256 1 0.149674 0.174732 0.0258074 0.30854 -3.33048 -0.233978 0.357434 -0.153468
331 1 0.124465 0.200462 0.0241378 0.336944 -3.36882 0.304042 -0.132274 0.324015
253 1 0.150955 0.150232 0.00119647 0.919556 -3.27583 -0.24618 -0.20294 -0.415513
250 1 0.126357 0.172939 -0.00151871 1.49736 -3.34753 -0.557655 0.466214 0.410012
255 1 0.174635 0.151156 0.0254813 0.509558 -3.30887 0.0474701 -0.531985 0.269879
257 1 0.200214 0.14957 0.00127579 0.522889 -3.29867 -0.126718 -0.0362944 -0.314593
260 1 0.199288 0.175477 0.0274124 0.629688 -3.2637 -0.335394 0.277111 -0.41854
1854 1 0.173164 0.176426 0.0510698 0.721228 -3.25063 0.189746 -0.613584 -0.147639
337 1 0.199528 0.200519 0.00206355 0.637437 -3.35255 0.11587 -0.401313 -0.291834
254 1 0.176211 0.173703 0.00138411 0.62534 -3.33549 -0.198783 0.51671 -0.30029
259 1 0.222899 0.152217 0.026765 2.09658 -3.25205 0.235445 -1.14492 0.0185984
1861 1 0.250473 0.147804 0.0512535 0.793829 -3.35436 -0.222063 0.349578 -0.127631
263 1 0.27452 0.148351 0.0247596 0.27614 -3.31102 0.292424 0.325925 0.0978218
264 1 0.249757 0.172066 0.0258025 0.843842 -3.23803 0.0898869 0.534627 0.279228
339 1 0.226592 0.198725 0.0251194 1.02374 -3.34562 -0.339079 0.306894 0.41325
1858 1 0.224241 0.174779 0.0502161 0.339091 -3.32083 0.323392 0.00434676 0.622897
1941 1 0.249909 0.19894 0.0514201 0.254438 -3.32808 0.49173 -0.199027 -0.0867516
343 1 0.274007 0.197904 0.0264706 0.618664 -3.36636 0.198482 0.324326 -0.209194
1862 1 0.275145 0.173132 0.0493916 0.644983 -3.2918 -0.442367 0.277986 0.128362
262 1 0.273002 0.174544 0.000773774 0.761965 -3.337 0.931238 -0.51427 -0.185438
267 1 0.323965 0.148521 0.0250018 0.299471 -3.31187 -0.294554 0.0554786 -0.165171
268 1 0.300933 0.174289 0.025525 0.352855 -3.34905 -0.525128 0.0432365 -0.0361992
1866 1 0.325279 0.174076 0.0501785 0.352269 -3.24063 -0.54548 0.420611 -0.180394
271 1 0.372728 0.14986 0.023586 0.940677 -3.33105 0.719542 -0.111775 0.0715626
272 1 0.349638 0.173387 0.0243026 0.43281 -3.30431 -0.239235 0.227101 -0.357337
349 1 0.347617 0.199328 -0.000132625 0.983302 -3.36381 0.191468 -0.261939 0.185119
1870 1 0.375088 0.174597 0.0484096 0.360127 -3.32613 0.33569 -0.692775 0.563376
275 1 0.425203 0.148819 0.0231347 0.786349 -3.31914 0.0326988 0.521841 0.383069
276 1 0.402197 0.173617 0.0254984 0.934084 -3.33442 -0.21443 -0.159656 -0.247865
1953 1 0.402346 0.197994 0.0485143 1.33712 -3.30527 -0.497956 0.201977 0.368304
355 1 0.426018 0.198588 0.0239517 0.608429 -3.27078 0.127521 0.145665 0.255628
279 1 0.475499 0.148393 0.0239874 0.552752 -3.34836 -0.153367 0.315438 0.0671224
280 1 0.450142 0.174214 0.0266047 0.778605 -3.35051 0.167614 -0.156357 -0.631177
1957 1 0.450181 0.200388 0.050427 0.524179 -3.33034 -0.220727 -0.379398 0.149309
1878 1 0.474598 0.173043 0.050501 0.535733 -3.25229 0.0695733 0.367867 -0.362053
284 1 0.499555 0.174025 0.0250767 0.342658 -3.36543 0.0147022 0.0302796 -0.00983224
359 1 0.474506 0.199455 0.0272356 1.20919 -3.32121 0.106552 -0.223567 -0.672697
1881 1 0.499117 0.150207 0.0494463 0.484816 -3.31545 0.577226 -0.325079 0.0278747
1885 1 0.549277 0.150157 0.0490512 0.419122 -3.31523 0.0425475 0.145543 0.270248
1961 1 0.502475 0.19877 0.0474558 1.9465 -3.32027 -0.380641 0.0734591 0.658901
1882 1 0.525293 0.173912 0.0507863 0.738695 -3.29374 -0.113527 -0.0843368 -0.355746
288 1 0.548815 0.176499 0.0250792 0.973364 -3.2852 0.512072 -0.814451 -0.0867528
287 1 0.57486 0.150841 0.0257511 0.546028 -3.33823 -0.230696 -0.302439 -0.441708
1889 1 0.601942 0.15066 0.0505992 1.27966 -3.31459 -0.562101 -0.380715 -0.0733253
367 1 0.577785 0.19878 0.0224442 2.09213 -3.23256 -1.12588 0.180278 0.63381
1886 1 0.576114 0.174936 0.0476986 1.01348 -3.29509 -0.474538 -0.188383 0.600005
292 1 0.600264 0.173521 0.0237451 0.975955 -3.28771 0.364725 -0.0756684 0.17695
1969 1 0.597909 0.198962 0.0491205 0.863035 -3.30134 0.780805 0.467857 0.270543
1893 1 0.649328 0.150462 0.0520244 1.06421 -3.35382 -0.160543 0.161058 -0.477932
371 1 0.622481 0.200227 0.0230549 1.09597 -3.2139 0.635294 0.0128866 1.2715
1890 1 0.62281 0.175926 0.0522818 1.30232 -3.30233 0.231633 -0.130828 -0.508458
296 1 0.647968 0.17637 0.0254606 0.720186 -3.31579 0.0360116 -0.565323 0.0347558
295 1 0.673291 0.151742 0.0245813 0.492203 -3.35898 0.192909 -0.118687 0.021054
1897 1 0.699531 0.150527 0.0495067 0.419177 -3.32517 0.326389 0.140053 -0.173182
1894 1 0.67387 0.175375 0.0488727 0.593342 -3.30906 0.0993425 0.0582153 0.493022
300 1 0.699381 0.176406 0.0260557 0.614021 -3.33442 0.33775 -0.363742 -0.373456
299 1 0.725529 0.148843 0.0254854 0.856456 -3.3403 -0.12455 0.720918 -0.0668511
303 1 0.776191 0.150104 0.0239922 0.477507 -3.31696 -0.262745 0.239388 0.301548
1898 1 0.726011 0.174471 0.0482257 0.779561 -3.35288 -0.00768843 0.0341904 0.381132
304 1 0.751229 0.174665 0.0253099 0.319413 -3.34727 -0.00848824 -0.15074 -0.104064
1981 1 0.75093 0.199641 0.0498892 0.466827 -3.35833 -0.0738563 0.185076 0.141439
1902 1 0.77718 0.176261 0.0491641 0.346237 -3.26822 -0.886804 -0.0810305 0.0114674
305 1 0.80069 0.149385 0.00094942 0.606138 -3.31378 0.201968 0.0686473 -0.640242
308 1 0.801643 0.176114 0.0245753 0.554075 -3.31995 -0.273619 -0.296144 -0.268113
1906 1 0.825779 0.17463 0.0481054 0.733274 -3.34087 0.282102 0.180961 0.117876
311 1 0.87368 0.150886 0.0238337 0.854023 -3.30382 0.614481 -0.261439 0.152591
309 1 0.849402 0.150558 -0.000773541 0.39389 -3.3083 0.281568 -0.222958 -0.0373661
312 1 0.851247 0.17501 0.0219176 1.32226 -3.32347 -0.58821 0.343766 0.66182
1910 1 0.874925 0.176636 0.0496125 0.465321 -3.29086 -0.261573 -0.347555 0.0185437
310 1 0.876036 0.17499 -0.00105491 0.314903 -3.28394 -0.0610769 0.107859 0.230375
1913 1 0.898713 0.150861 0.0500209 0.43043 -3.37203 0.136022 -0.139831 0.0143568
314 1 0.925373 0.174004 -1.44224e-05 0.637075 -3.30198 -0.114086 0.481247 0.330374
316 1 0.899863 0.173759 0.025069 0.695855 -3.36372 0.121538 0.430218 -0.179729
320 1 0.948102 0.17444 0.0274914 1.42187 -3.29676 0.525992 0.557354 -0.499416
318 1 0.974367 0.176387 0.00180816 0.857879 -3.35717 0.249714 -0.227114 -0.23528
397 1 0.947986 0.199598 0.00182347 0.869987 -3.36577 0.334259 0.00142231 -0.248393
323 1 0.0245273 0.200133 0.0235885 0.6818 -3.3382 0.409498 0.021704 0.101305
325 1 0.0506863 0.199691 -0.000744434 0.285478 -3.29663 -0.154531 0.32265 0.188958
328 1 0.050249 0.224604 0.026077 0.508727 -3.35202 -0.297168 0.0671392 -0.344143
403 1 0.0250296 0.249332 0.0254262 0.390379 -3.33194 0.068218 0.0110255 0.132006
322 1 0.0265174 0.224054 -0.00127181 1.05743 -3.31516 -0.458938 0.173686 0.523185
321 1 -0.000383269 0.200104 -0.00134683 0.405455 -3.27914 0.186383 0.0609999 0.445379
332 1 0.0999829 0.22539 0.0254572 0.308588 -3.3161 -0.114918 0.0698166 -0.276942
326 1 0.074866 0.226892 0.000759372 0.641585 -3.38107 0.14 -0.179358 -0.049873
336 1 0.149094 0.225817 0.0252716 0.402519 -3.35582 -0.0666628 -0.256737 0.0656268
2013 1 0.151143 0.247916 0.0510909 1.18851 -3.3161 -0.330931 0.597605 0.119383
330 1 0.123647 0.225346 -0.000322386 0.417661 -3.35879 -0.0380456 -0.12795 0.0511698
333 1 0.150515 0.199528 3.63585e-05 0.228692 -3.31756 -0.334657 -0.2236 0.0887406
335 1 0.17342 0.200634 0.0249764 0.621494 -3.32933 0.0545825 -0.175736 0.304839
1937 1 0.198423 0.198464 0.0508529 0.832397 -3.33427 0.429301 0.824643 -0.0577944
340 1 0.197971 0.22529 0.0265787 0.925909 -3.32095 0.513214 -0.541827 -0.00538949
344 1 0.25082 0.22479 0.0264377 0.391649 -3.35707 0.076865 -0.155243 -0.107962
419 1 0.22364 0.248823 0.0256814 0.771991 -3.31275 0.232985 0.267992 0.074249
1938 1 0.227188 0.223941 0.050879 0.835767 -3.28778 -0.969399 0.113373 -0.419359
2021 1 0.250773 0.249194 0.0515671 0.382041 -3.34121 0.152346 0.0839924 -0.176048
421 1 0.248861 0.249204 0.00251928 0.746711 -3.27811 0.438296 -0.366286 -0.139108
423 1 0.276182 0.250494 0.0255624 0.438192 -3.3354 0.207401 -0.332937 0.321695
1945 1 0.300331 0.200101 0.0509643 0.586421 -3.29339 -0.157144 -0.440841 -0.202618
347 1 0.326326 0.198764 0.0270849 1.23895 -3.25358 -0.833035 -0.0257876 -0.724984
348 1 0.301229 0.22499 0.0252401 0.199939 -3.32753 -0.0419415 -0.0242502 -0.0249375
427 1 0.327118 0.251906 0.0248855 1.195 -3.32619 -0.130354 -0.741424 0.111921
1946 1 0.325506 0.224413 0.0489567 0.724196 -3.30014 -0.120887 0.110686 0.533434
425 1 0.30089 0.24975 0.00127159 0.470449 -3.34802 -0.0784466 0.0804539 -0.408146
351 1 0.375333 0.197339 0.0261673 0.762137 -3.26595 0.122842 0.537601 -0.581213
352 1 0.348431 0.22348 0.0252992 0.744829 -3.25153 0.0181933 0.32217 -0.245726
431 1 0.371949 0.249841 0.0255758 1.09523 -3.32906 0.130397 -0.127641 -0.0663146
1950 1 0.371639 0.225396 0.0497843 1.88672 -3.32403 0.792211 -0.244845 0.0671357
356 1 0.39929 0.223722 0.0265204 0.437605 -3.36378 -0.01346 0.128485 -0.0821303
1954 1 0.424919 0.223863 0.0496369 0.183262 -3.27759 0.120848 0.21801 -0.219654
360 1 0.448769 0.223558 0.0246472 0.476195 -3.32193 0.38976 0.261375 0.0429853
364 1 0.499467 0.225194 0.0260335 0.526033 -3.28003 -0.198846 -0.08123 -0.239126
1958 1 0.475901 0.223208 0.0501175 0.628542 -3.33406 0.119347 0.462439 0.170752
363 1 0.526559 0.199853 0.0233426 1.07635 -3.20262 -0.735073 0.440272 0.46927
1965 1 0.549507 0.199645 0.0480631 0.471821 -3.34672 0.424266 0.118592 0.262574
2041 1 0.501414 0.250476 0.0507059 0.742862 -3.2667 -0.61849 -0.410835 0.100996
1962 1 0.524689 0.224353 0.0481145 0.517281 -3.30309 0.251305 0.00571753 0.353076
368 1 0.552075 0.225077 0.02321 0.87208 -3.36805 -0.358081 0.0109505 0.33374
365 1 0.549641 0.200462 4.23014e-05 0.462527 -3.30051 0.292286 0.234825 -0.487002
1966 1 0.576171 0.225256 0.0488134 0.489834 -3.30162 -0.392877 0.00685002 0.355249
372 1 0.598016 0.225392 0.0251488 0.850155 -3.24772 0.642003 0.179757 -0.300683
1973 1 0.647648 0.197999 0.0497549 1.19119 -3.31622 0.224003 0.887259 0.0107971
1970 1 0.623204 0.225628 0.0482759 0.562944 -3.34846 -0.0507759 -0.213101 0.589762
376 1 0.647102 0.224265 0.0246438 1.06916 -3.27616 0.471168 -0.0184335 -0.24766
375 1 0.674002 0.199784 0.0260243 0.683313 -3.28947 -0.120288 0.256292 -0.245108
377 1 0.699052 0.200284 0.000762092 0.455078 -3.30255 0.302006 0.272716 -0.308494
380 1 0.700036 0.223456 0.0238141 0.747143 -3.33029 0.257735 0.489333 0.012958
379 1 0.726984 0.199372 0.0242701 0.86793 -3.31101 -0.301213 0.412481 0.283557
383 1 0.7751 0.200296 0.0247359 0.302407 -3.32904 0.09004 -0.0261256 -0.00238697
1978 1 0.725872 0.226075 0.0507839 0.690473 -3.32675 -0.375665 -0.166429 -0.452956
384 1 0.750148 0.225117 0.0261644 0.436417 -3.33682 -0.287132 -0.00239617 -0.168295
1982 1 0.777006 0.223728 0.0508419 0.941947 -3.27617 -0.68341 0.520948 -0.0426385
382 1 0.774337 0.226196 0.00267882 1.24303 -3.31457 0.403426 -0.307277 -0.789373
387 1 0.824065 0.201373 0.02321 0.817729 -3.27353 0.397813 -0.656724 0.574295
1985 1 0.800599 0.200148 0.048667 0.486999 -3.24924 0.59153 0.1753 0.154447