ITEM: TIMESTEP
0
ITEM: NUMBER OF ATOMS
1944
ITEM: BOX BOUNDS pp pp pp
-3.1865008146723106e-01 3.1197016648820959e+01
4.2006155886336849e-01 3.0458305008483126e+01
2.1361356017417599e+00 2.8742230965555066e+01
ITEM: ATOMS id type q x y z
1335 1 1.87124 2.44356 5.51003 4.62489
1691 2 -0.938196 1.66756 4.07194 4.44726
1059 2 -0.933158 2.96377 4.6997 8.29222
904 2 -0.943781 2.50976 2.09107 8.09263
991 1 1.87104 3.61196 3.22192 8.01709
593 2 -0.945883 4.26941 2.57578 3.96623
271 1 1.87759 4.75174 3.65954 5.08633
289 1 1.83317 1.0817 2.77601 5.20262
1665 2 -0.922308 1.79993 1.45517 5.75954
1782 2 -0.919878 3.96728 5.0609 4.79793
304 2 -0.942687 4.33245 3.05829 6.53409
1271 1 1.91535 4.79559 1.12996 3.62531
85 2 -0.932655 0.654708 3.45181 6.62197
1586 1 1.84553 1.95787 0.853027 7.26481
785 1 1.84827 -0.0177541 1.40888 2.89248
1570 2 -0.93094 -0.0940702 2.15284 4.32667
1482 2 -0.967388 2.01992 6.29392 5.92277
1723 2 -0.962244 6.09259 6.19553 2.4255
1709 2 -0.94073 6.32855 3.88943 5.0756
449 2 -1.00426 6.39262 1.08279 3.85708
1476 2 -0.860117 11.4482 3.99843 2.55355
1079 2 -1.00154 8.60365 5.17658 5.45549
1108 1 1.9403 7.79694 3.85172 5.73656
717 2 -0.917345 9.41667 1.55328 7.42074
1047 1 1.81652 10.4261 2.49833 8.21383
700 2 -0.954663 11.4475 3.30389 7.25834
360 2 -0.944237 8.64704 2.57532 5.21605
1424 1 1.83931 9.30346 1.24335 5.83658
484 2 -0.953346 7.63002 3.77155 7.36228
898 2 -0.958518 8.03029 5.81655 8.69997
160 2 -0.960562 10.8775 5.76688 4.35867
11 1 1.99132 9.3212 6.04782 4.34712
790 2 -0.911499 10.8409 1.00522 5.34259
499 2 -0.952249 8.66506 5.69241 2.93736
2 1 1.86438 12.0599 5.26709 3.38162
1925 2 -0.92883 11.2219 6.38619 8.68101
890 2 -0.942341 13.7289 4.85186 7.02847
191 1 1.81008 12.8519 3.7277 7.80002
718 2 -0.945408 13.17 5.02534 4.4897
1363 2 -0.86789 13.7583 2.30705 7.53715
1354 2 -0.881272 15.2264 2.31175 5.26315
469 1 1.91645 15.3869 2.53201 3.59838
704 1 1.91804 14.4707 1.41686 6.40623
1191 1 1.91139 13.8536 5.7837 5.73764
1823 2 -0.936242 13.9432 1.96884 3.05794
1491 2 -0.915395 13.3956 0.450844 5.69639
330 2 -0.966585 15.2842 6.22895 5.3394
834 2 -0.930134 12.6555 6.42685 2.39966
822 1 1.87973 13.0043 1.00301 2.16126
517 2 -0.903626 2.27281 6.46892 3.28461
1622 1 1.87612 2.81 7.57318 2.21531
436 2 -0.944382 4.24226 8.06521 2.85841
412 2 -0.983536 0.130679 7.70343 7.10326
1838 1 1.88726 1.62428 7.74043 6.51882
1645 2 -0.91678 5.35945 10.6394 3.98462
471 1 1.96014 0.778587 9.96735 4.80069
1161 2 -0.948472 1.73555 8.80043 5.31866
1475 2 -0.925117 2.51552 11.2219 8.55635
666 2 -0.933749 2.60902 8.23709 7.6748
1097 2 -0.957443 1.56315 11.0407 3.92309
621 2 -0.934489 5.20081 9.21516 6.10628
1020 1 1.90469 5.26974 10.6932 5.56791
211 2 -0.932542 4.1301 11.4676 6.4378
127 1 1.8381 3.51841 12.185 7.7123
201 1 1.95052 1.46947 12.0654 2.72031
975 1 1.95264 5.71499 7.53251 3.22641
5 2 -0.942569 0.223954 10.6301 6.13522
1484 2 -0.94837 6.00176 6.88851 7.40419
1017 2 -0.944639 5.96133 7.27951 4.75777
327 1 1.85688 6.19618 7.92891 6.23635
1323 2 -0.979602 6.62288 8.74222 2.76318
378 2 -0.960915 6.72505 11.3359 5.91656
460 1 1.88909 6.36983 10.317 2.75164
1924 2 -0.93975 6.81483 10.5891 8.26479
1000 1 1.97038 7.41749 11.7197 7.30697
1735 2 -0.934642 11.8908 8.89035 2.48828
1292 2 -0.882842 7.86093 10.9388 3.15382
1766 1 1.87868 11.0141 7.9378 8.24855
485 2 -0.9521 10.5447 11.0745 2.95382
549 2 -0.943815 8.99856 7.59742 4.59722
1743 2 -0.958996 7.69503 8.58461 6.48394
1509 2 -0.951165 10.228 8.02229 6.85534
619 2 -0.952473 9.55074 10.0332 5.14889
1396 1 1.90649 9.15577 8.64486 5.82553
682 2 -0.953595 11.5764 11.3496 7.03867
1930 2 -1.00731 9.00348 11.7424 7.58769
1551 1 1.82812 9.32562 11.1297 3.99145
893 1 1.99025 10.4646 12.3213 7.68932
532 1 1.86546 13.1928 7.93078 2.40796
1579 2 -0.99662 12.5136 8.58445 8.22976
88 2 -0.931441 13.1123 11.991 5.07589
1300 2 -0.877422 14.2808 7.97098 3.65534
104 2 -0.979341 13.6591 9.78043 6.34623
1783 1 1.91676 13.0662 11.2413 6.4823
1937 1 1.96715 13.606 8.41071 7.1151
1833 2 -0.95883 13.1043 7.1738 6.22482
36 2 -1.03137 15.0592 8.12058 7.71968
296 2 -0.890018 14.018 12.1863 7.46086
647 2 -0.923949 3.43778 15.5914 2.72724
1397 1 1.86009 3.89063 14.0794 2.29676
166 2 -0.913994 -0.0610974 12.6503 2.60327
437 2 -0.894698 2.60945 13.1946 2.81723
1705 2 -0.952517 4.74522 17.7038 3.49918
888 2 -0.952709 2.66892 13.4069 7.19275
659 1 1.81392 1.02786 16.8565 5.41327
907 2 -0.878397 2.12434 17.3974 4.27234
701 2 -0.932273 1.44588 15.4427 6.02296
465 2 -0.984841 3.99659 15.1687 5.92093
1055 1 1.89447 2.70757 14.9357 6.89979
1164 1 1.87989 5.35581 15.9358 6.04125
1130 2 -0.986476 5.18326 17.4856 6.05609
1193 2 -0.949295 2.80128 15.7445 8.28665
277 2 -0.886396 5.24143 13.7401 3.12914
676 1 1.85623 3.29143 17.1636 3.12987
105 2 -0.94768 1.08524 17.9132 6.6022
179 2 -0.982241 4.31456 18.2879 8.38051
1611 2 -0.973105 5.93323 15.6118 7.55492
1540 1 1.83408 6.04738 17.6371 2.63123
493 2 -0.951176 6.41457 15.3375 4.96994
48 1 1.80125 6.43118 14.8215 3.42631
733 2 -1.04956 6.90185 13.1898 7.55399
1740 1 1.99574 7.11708 14.6911 8.02312
817 2 -0.947928 7.48186 17.8878 3.43718
69 2 -0.866523 6.15909 15.9801 2.36746
769 2 -0.912119 9.27695 12.5954 4.65481
502 2 -0.870312 10.4618 14.1017 2.74915
1109 1 1.85517 9.34077 14.062 3.93555
726 2 -0.925487 7.93611 14.2333 3.23765
1417 2 -1.00323 8.4494 15.2616 7.3822
1816 2 -0.935114 9.63507 15.1194 5.08018
964 1 1.97484 9.86443 15.2553 6.67677
1785 1 1.8159 11.1382 17.3889 3.2801
1732 2 -0.978125 10.5866 13.859 7.07855
1278 2 -0.952222 10.5649 16.6454 7.08217
30 1 1.84781 11.6716 17.681 7.47044
607 2 -0.935067 10.0246 17.7885 4.28386
214 2 -0.939873 7.99997 17.9177 8.66643
1601 2 -0.961094 8.12022 18.1168 5.97764
1071 2 -0.901698 12.1979 16.3854 4.00486
945 2 -0.967674 13.9212 12.5032 2.53421
1188 2 -0.959309 12.5778 16.8685 8.56562
109 1 1.96499 14.0121 12.8795 4.09556
1751 2 -0.967911 13.7038 14.4219 4.44106
1864 1 1.90232 13.7417 15.9147 3.94708
288 2 -0.912765 14.5155 15.1423 7.86118
114 2 -0.969781 14.6636 16.8785 4.8603
1661 2 -0.969412 14.2578 15.9436 2.43758
387 2 -0.937146 12.5311 18.077 6.14479
1515 1 1.99079 8.53604 18.4134 4.4867
829 1 1.91624 4.88794 18.7589 6.93438
1600 2 -0.953605 3.84099 21.9349 2.89253
1837 1 1.90544 0.822047 21.878 4.20344
1566 2 -0.877713 3.42031 22.029 6.78635
1296 2 -0.91608 1.38165 20.3391 7.19104
885 1 1.87549 2.67025 20.7034 6.19503
1597 2 -0.923034 1.85731 20.7996 4.82361
1549 1 1.82058 3.51193 22.6265 8.2996
1939 2 -0.954971 3.81293 19.6283 6.1368
45 2 -0.971582 4.36566 23.9686 8.46175
744 2 -0.939206 0.927476 23.2258 5.14909
614 1 1.90837 0.348856 19.1188 7.37734
1398 1 1.79328 5.47142 21.8813 2.82294
1511 2 -1.01656 1.31825 22.3136 2.77901
738 2 -0.624462 6.10642 20.4639 3.09384
1896 2 -0.920825 6.07233 22.8418 4.00762
1070 2 -0.895126 6.33839 19.4567 7.27037
1657 1 1.63794 7.17657 23.0213 5.07188
540 2 -0.926425 6.96168 23.8728 8.51723
1654 2 -0.915424 7.49207 24.4171 5.66497
1043 2 -0.916233 12.1553 18.5774 2.73387
247 2 -0.98876 8.71875 22.2218 2.78364
869 2 -0.93816 11.2519 18.9992 8.26105
1423 1 1.82815 9.47128 20.7664 3.02318
996 2 -0.94503 10.9595 21.1366 3.53088
1517 2 -0.914111 7.66137 21.904 6.03418
1855 1 1.81953 9.00682 21.6276 6.86907
374 2 -0.993051 8.79822 19.9566 4.18651
948 1 1.83329 7.90614 18.8909 7.39209
935 2 -0.923931 8.91544 20.1442 7.43927
52 2 -0.842706 9.2283 22.6989 8.15553
1858 2 -0.904898 10.1936 22.0221 5.80483
813 1 1.93828 11.5153 21.6956 4.89177
620 2 -0.959569 12.151 21.6054 8.51404
1447 2 -0.965725 12.2778 23.0322 4.55958
1061 2 -0.96314 12.347 20.6355 5.78718
1716 2 -0.968404 14.6196 23.4332 3.43283
24 2 -0.952785 12.7438 24.0908 7.85922
1416 1 1.8741 13.3593 19.4161 5.99752
61 2 -1.01099 14.2728 19.3798 7.34154
1019 1 1.9116 13.3559 24.1186 4.08561
488 1 1.95103 13.28 22.7431 8.43198
571 2 -1.00647 14.4741 22.3735 7.44147
1485 2 -0.943926 14.407 19.7634 4.78286
1773 2 -0.907936 4.16737 30.1321 4.64287
1376 2 -0.860236 0.702084 30.0837 7.85318
1328 2 -0.965636 3.13605 27.1597 2.51234
1434 1 1.86026 0.435184 24.6846 4.81382
1490 2 -0.920779 3.16636 29.7596 7.11982
1232 2 -0.936769 0.721107 25.64 6.1388
357 2 -0.942576 0.675157 29.9881 3.11159
1440 2 -0.917591 0.377989 27.5737 7.81768
1121 2 -0.86308 1.32688 25.4589 3.65225
398 1 1.92903 1.22071 26.2696 7.49585
1388 1 1.8823 4.37583 29.4883 6.12876
1395 2 -0.954535 0.848252 25.1885 8.62676
236 1 1.80425 2.45364 26.6366 3.86484
1142 2 -0.912859 3.48684 25.8594 4.83428
1256 2 -0.924357 2.85701 26.4853 7.35848
633 1 1.86643 4.02113 26.392 6.23213
1931 2 -0.944024 4.45019 27.9032 5.91845
252 2 -0.934864 5.39501 25.6745 6.59362
301 2 -0.96486 1.87822 27.989 4.55094
1101 1 1.84194 0.622042 28.7291 4.05801
1915 2 -0.934773 5.7039 30.1198 6.82963
1815 2 -0.926044 -0.279623 27.6163 3.19222
1171 1 1.81328 6.25459 29.5772 8.2578
1749 1 2.02504 7.43773 29.9671 4.05219
1631 1 1.81811 6.73202 25.8542 5.72522
679 2 -0.939378 6.45359 26.0519 4.1219
1650 1 1.93757 7.02462 27.2607 3.26408
1258 2 -0.972348 6.61358 28.636 3.98949
1942 2 -0.924948 12.0878 30.3199 3.27151
1547 2 -0.883094 10.859 26.7034 2.33551
1500 2 -0.97768 8.27801 29.9364 2.70485
537 2 -0.98508 8.3644 30.0898 5.32047
1683 2 -0.955949 9.50841 24.7331 3.17338
170 2 -0.981084 8.63337 27.144 3.47104
1565 2 -0.97199 8.92824 26.3732 8.3042
462 1 1.92926 9.90442 26.2243 3.52492
1656 2 -0.957941 7.56357 27.1003 6.2633
1698 2 -0.943744 7.74681 28.8943 8.15227
1662 2 -0.911913 9.91315 28.0828 6.8442
794 1 1.88592 8.49732 27.6789 7.45118
39 1 1.81457 11.1472 27.3252 6.06572
675 2 -0.922912 10.5851 26.193 4.99853
1158 2 -0.906342 11.8961 28.4699 5.19905
937 1 1.86112 12.0383 30.0581 4.88617
1619 2 -0.905178 12.1984 26.5632 6.98682
265 2 -0.921992 12.7061 24.9565 2.87153
375 2 -0.984676 13.4342 27.4854 2.55246
1922 2 -0.939614 13.4917 25.0952 5.40896
1639 1 1.8833 13.2717 25.3891 6.99822
1174 2 -0.937547 14.7869 25.7184 7.48248
1007 2 -0.934113 4.63296 2.82218 9.18804
1459 1 1.83616 2.32281 5.57496 9.45168
64 1 1.89651 5.1817 1.63737 10.1553
1682 2 -0.964622 5.7551 6.09507 9.96482
1152 2 -0.995254 2.12152 4.71654 10.7265
340 2 -0.955604 4.06951 0.697974 10.7959
414 2 -0.566879 1.27764 1.02746 10.6457
931 2 -0.955463 0.987379 6.42301 9.06986
987 2 -0.922335 6.21178 0.794371 9.25898
672 2 -1.00615 7.28475 3.79321 10.0326
1160 2 -0.953068 1.94004 2.53054 15.4019
651 1 1.86901 2.12169 2.37581 13.7896
940 2 -0.913637 3.3047 1.24266 13.3981
632 1 1.93107 2.4851 5.01879 12.2531
1104 2 -0.999329 2.57523 3.74883 13.1438
347 2 -0.897007 0.774016 1.85661 13.123
1516 2 -0.894127 3.98579 5.72296 12.0453
982 1 1.6537 0.149256 1.15064 11.7753
814 2 -0.922326 1.36284 6.04301 12.7721
1281 1 1.81334 -0.0412534 6.00724 13.5518
457 2 -0.889527 0.0165944 6.15798 15.2026
1620 2 -0.943603 5.88378 2.27243 11.4324
615 1 1.91387 7.15864 5.55707 13.558
1869 2 -0.956939 6.60394 4.54758 12.4338
178 2 -1.00707 7.327 4.87219 14.9856
1594 1 1.97941 7.1033 3.33199 11.5389
1788 2 -0.980031 9.5902 3.63164 8.9967
1280 1 2.02724 8.15417 4.25506 8.81558
1719 2 -0.893213 11.2257 1.55743 9.29086
1371 1 1.79476 11.635 5.48639 9.96683
74 1 1.87719 11.8529 1.21886 10.7613
544 2 -0.911524 12.5518 4.23074 9.27228
1094 2 -0.903495 15.3379 1.84028 9.8562
1266 2 -0.976215 12.6229 6.42713 10.8069
611 2 -0.948201 10.4223 5.33283 10.9987
1215 2 -0.965563 7.90798 2.43143 15.3572
1063 1 1.9463 7.88984 0.845909 14.9751
159 2 -0.904059 11.0787 1.20462 14.7627
1060 2 -0.96154 10.5472 3.82445 14.8927
623 1 1.85475 10.8209 5.37582 14.9541
792 2 -0.972508 8.42869 2.6085 11.9837
246 1 1.9412 9.10693 1.13752 12.1587
1103 2 -0.925984 10.691 1.29504 11.8571
348 2 -0.946188 11.0804 6.02564 13.5111
852 2 -0.959006 8.62167 5.89617 12.9359
376 2 -0.994776 8.62211 0.67089 13.5787
244 1 1.94485 10.1025 6.21555 12.296
1040 2 -0.889923 12.9551 2.73668 15.3602
1530 2 -0.895781 15.0961 1.42376 12.4216
1202 2 -0.883921 15.3136 3.87217 11.6987
830 1 1.81921 14.6932 2.44213 11.2075
51 2 -0.969003 14.7947 6.41204 12.2345
103 2 -0.907673 13.0869 2.23198 11.1605
1375 2 -1.18603 3.43377 6.87906 9.77246
1245 1 1.75477 2.24462 10.8797 10.0951
68 2 -0.905499 2.46241 9.26484 10.1798
773 2 -1.00909 4.76924 9.07674 9.02369
1747 1 1.88242 3.30192 8.4343 9.12427
643 2 -0.855716 0.719681 11.2971 10.3917
973 1 1.86772 4.60859 6.61878 10.8612
1774 1 1.85971 6.24408 9.56112 9.44688
613 1 1.80304 6.72985 6.75244 8.8633
950 2 -0.949472 7.11223 8.21707 9.38948
1700 2 -0.974065 6.48717 10.3484 10.8145
673 2 -0.85885 3.26213 11.7718 10.9957
674 2 -0.912133 4.29331 11.9336 14.0981
1438 2 -0.893102 1.3258 9.28769 14.6718
1504 1 1.79904 0.073658 10.3247 14.6083
402 2 -0.889255 0.83534 11.6923 14.1967
1009 1 1.92375 4.80674 10.5726 14.7006
1471 2 -0.966165 4.95031 9.34442 13.6885
80 2 -0.988506 5.17125 7.94601 11.5735
1261 1 1.86315 5.89165 8.30462 12.9398
833 2 -0.903444 6.20141 6.88452 13.6748
1888 2 -0.928528 7.37591 8.98523 12.7285
1800 2 -0.922168 -0.285322 9.06077 11.0795
350 2 -0.927249 10.2251 8.69122 9.39099
1797 2 -1.06478 14.9427 6.62656 9.73357
1085 2 -0.906456 13.6564 10.9338 9.66767
29 1 1.79626 14.6623 12.0213 8.96919
1676 1 1.9963 14.0941 7.06902 10.9489
298 1 1.88879 10.3484 9.12576 10.9781
1660 2 -1.00142 14.0379 8.6484 10.9845
1891 1 1.89496 13.2876 10.092 11.034
1387 1 1.91001 7.7166 10.3166 11.8808
1836 2 -0.919998 7.5788 11.7027 12.5881
1697 2 -0.928683 10.1361 7.75361 11.9034
233 2 -0.928415 9.12261 10.1614 11.2277
1671 2 -0.948063 11.7227 9.88357 11.2576
1176 2 -0.992998 13.4932 9.41555 14.3573
815 2 -0.944598 14.0106 10.8515 12.2693
66 1 1.91628 14.5016 10.4521 13.7261
897 2 -0.937876 14.4719 11.7672 14.6623
1863 2 -0.910879 4.51193 12.8107 8.95195
175 2 -0.948066 3.20741 14.2827 10.5517
333 2 -0.92179 3.58745 16.8024 10.5127
1595 1 1.8746 2.64183 15.655 9.96517
1794 1 1.96302 4.47311 18.0168 9.9552
1374 2 -0.920855 1.07904 15.963 10.3094
227 1 1.8272 4.20547 13.0511 10.5856
1049 2 -0.938285 6.05657 17.8795 10.3425
439 2 -1.01495 7.30892 14.7888 9.61662
698 2 -0.901328 5.45556 13.1426 11.6437
1350 2 -0.96691 2.33985 13.4482 15.3567
658 1 1.85144 3.88402 13.2836 14.9156
594 2 -0.902086 4.10823 14.5509 13.9183
1253 1 1.82217 0.915414 13.2481 14.6612
1385 2 -0.937724 0.504269 14.1135 13.3886
421 2 -0.954142 0.413383 17.8765 13.301
454 2 -0.956615 2.76631 16.9411 13.6702
1407 1 1.86559 3.9953 16.1182 14.2413
1210 2 -0.90245 5.40306 16.8867 14.0038
1523 1 1.91177 1.82804 18.1627 13.9673
1346 2 -0.907623 6.78707 13.5281 14.1368
154 1 1.8464 6.67441 17.2086 14.9599
1612 1 1.86398 6.81334 13.126 12.5646
589 2 -0.970587 10.8079 12.514 9.21611
1129 2 -0.997724 9.79708 14.7334 10.0913
1729 1 1.96608 11.093 13.7676 10.1365
1470 1 1.87952 7.64015 17.9326 10.2292
759 1 1.95833 8.38542 15.0673 10.7312
1755 2 -0.961878 12.3343 14.4719 9.38146
965 1 1.67886 13.3516 15.5433 8.81588
918 2 -0.966018 14.6836 13.3717 9.86371
177 2 -0.941598 15.2089 17.6964 9.23567
1228 2 -1.02895 14.8089 15.7267 10.8095
1229 2 -0.943016 10.5342 18.2774 11.6856
1402 2 -0.95486 11.4506 13.4965 11.6327
27 2 -0.8744 11.6749 14.134 14.0986
558 2 -0.925208 7.99743 14.082 11.9241
1334 1 1.89701 10.6076 14.0988 15.3698
508 2 -0.959392 9.13934 14.4106 14.767
1306 1 1.89312 7.62454 14.3221 15.261
1436 2 -0.96232 10.5719 17.041 13.9669
335 1 1.81868 11.4553 17.4111 12.6749
1461 1 1.89555 9.53921 17.8503 14.8879
1876 2 -0.934251 8.06765 17.6768 14.2615
108 2 -0.896822 12.035 15.9733 12.1347
1748 1 1.82464 12.3133 14.3697 12.6325
1235 1 1.88606 14.9314 14.1907 11.2141
925 2 -0.9217 13.8448 13.9341 12.3594
1722 1 1.83426 15.4028 13.0388 15.0432
1644 2 -0.931964 14.6058 14.4375 14.9794
684 2 -0.96761 13.6339 16.8307 14.7594
353 1 1.91125 13.4899 18.3772 14.4792
293 2 -0.908512 15.2005 18.2845 11.7364
692 2 -0.925194 8.26864 16.6481 11.011
787 2 -0.976273 1.51311 24.2943 10.9283
1357 2 -0.963039 4.01184 19.3101 10.7462
1560 1 1.90842 4.29354 20.8655 10.7579
1701 2 -0.943319 4.17128 21.4228 9.22653
483 2 -0.961814 1.99911 22.8177 8.79872
821 1 1.9365 0.969212 23.8372 9.47198
1563 2 -0.914772 0.221774 18.7669 8.92709
1819 1 1.86605 -0.141932 19.5614 10.2841
972 2 -0.969641 5.68231 23.8044 10.7232
1093 2 -0.973984 1.0931 20.1844 11.1149
315 2 -0.955431 3.19663 21.4569 11.7007
837 2 -0.947889 2.28323 19.6225 13.4627
219 1 1.8849 1.93292 20.7947 12.4028
12 1 1.97772 1.38821 23.4207 14.0167
521 2 -0.950207 2.94823 23.7413 14.154
285 2 -0.973191 1.26614 22.0186 13.2124
768 1 1.965 4.33526 23.2835 14.7291
1140 2 -0.960047 4.86645 21.9298 13.9873
955 1 1.79694 5.62908 20.6597 14.5065
258 2 -0.543281 6.02501 19.6177 13.3833
128 1 1.88445 6.63586 22.6391 11.3374
690 2 -0.982979 7.17306 23.1439 12.7478
1544 2 -0.963539 7.01493 21.0606 15.2993
1351 1 1.93414 6.97758 24.2034 13.9013
979 2 -0.910894 5.76033 21.3006 11.265
278 2 -0.967564 5.43453 24.3444 14.3369
1928 1 1.81432 8.32882 23.4315 9.28565
200 1 1.8445 11.823 20.2335 9.17908
1877 2 -0.847284 10.7015 20.5072 10.3749
1768 2 -0.934708 7.85759 22.4012 10.3523
721 1 1.84934 14.6326 19.1831 8.88059
207 2 -0.891704 13.259 19.6904 9.70562
1727 2 -0.92589 13.9737 22.8638 9.89161
670 2 -0.89603 8.3406 19.3256 10.7297
882 2 -0.95044 12.5883 18.4439 13.1821
199 1 1.91479 9.74527 19.6998 11.3978
367 2 -0.956845 9.65784 20.5486 12.7107
1824 2 -0.997669 10.1098 19.3246 14.9272
609 2 -0.896385 9.55047 21.7914 15.134
77 2 -0.9737 7.74028 23.5917 15.1562
416 1 1.88659 10.3322 20.6979 14.1597
86 2 -0.893688 11.822 21.2889 13.8519
1492 2 -0.964429 12.2113 23.8217 14.4544
894 1 1.83606 13.986 23.63 11.3415
646 2 -0.891666 14.9969 18.8728 14.22
642 1 1.87615 12.9404 22.455 14.047
747 2 -0.951736 13.9096 22.1347 15.3004
844 2 -0.904291 13.6681 22.6626 12.5856
444 1 1.88411 5.65958 24.4675 9.22456
1270 1 1.83702 0.430659 28.7729 8.84609
868 2 -0.942353 1.59507 28.2397 9.89707
1686 1 1.80912 5.40212 27.4778 10.0898
530 2 -0.985231 5.30896 28.4462 8.81532
734 2 -0.923271 5.87147 26.0189 9.47568
1224 2 -0.957023 3.9179 27.2559 10.7225
1556 2 -0.938222 6.59772 28.1072 11.0173
533 1 1.86929 3.75251 30.2448 12.2944
307 1 1.93537 2.46891 27.7724 11.1884
431 2 -0.951707 1.64064 26.6712 11.9864
1186 2 -1.01163 0.693537 24.6415 13.3171
1573 2 -0.894165 5.16877 29.6808 12.8363
489 1 1.96958 0.795527 25.3167 11.937
573 2 -0.91348 4.18902 28.8567 15.0269
1659 1 1.85337 5.59877 29.1369 14.2855
725 2 -0.903154 2.69961 28.9994 12.2057
418 2 -0.998645 6.37141 30.4152 14.9045
1818 2 -0.966162 6.43252 27.7834 14.159
112 2 -0.910602 9.19892 27.6404 10.5202
1708 2 -0.903483 8.85735 24.7267 10.1093
507 1 1.87084 9.50992 26.1679 9.74019
1741 2 -0.902939 11.0494 25.9487 9.90047
1016 2 -0.937534 12.2938 29.7004 10.6461
500 2 -0.943975 13.2015 27.2222 10.4623
1326 1 1.87184 13.5708 28.7742 10.379
358 2 -0.945827 14.2233 29.0715 8.95252
440 2 -0.934117 8.50109 30.0536 11.143
750 1 1.90187 8.16465 28.5099 11.3665
702 2 -0.918772 8.50026 28.0495 12.8638
9 2 -0.955331 8.70026 27.0389 15.3367
1721 1 1.89442 7.87748 27.0424 13.963
1166 2 -0.988195 7.6049 25.5876 13.4466
806 2 -0.968124 11.08 26.0324 14.8497
1559 1 1.84654 11.7287 27.0987 13.8585
297 2 -0.878607 11.1054 28.5604 14.0791
1692 2 -0.940774 11.4373 26.6925 12.3588
407 1 1.836 11.9225 29.872 14.5362
864 2 -0.971998 13.098 30.1868 13.4667
1889 2 -0.97677 12.7906 24.7177 11.3444
1829 1 1.86587 14.5728 30.0249 12.9448
994 2 -0.928656 14.5668 29.0426 11.6759
1327 2 -1.01912 13.3125 27.1459 14.1376
618 2 -0.965067 15.221 25.4916 14.4297
1091 1 1.85548 14.2478 26.4748 15.2465
1227 1 1.94641 12.2071 26.1255 11.037
1029 1 1.81488 2.54073 3.45218 16.6004
1321 2 -0.967765 3.75705 2.52989 17.1215
1143 2 -0.906847 3.06525 4.88013 16.1159
1014 2 -0.940614 1.70432 3.78685 17.9077
1342 1 1.90012 5.05607 2.90607 17.9253
1880 2 -0.912167 4.56501 3.89827 19.0956
624 1 1.81071 1.30966 3.6106 19.5026
1552 2 -0.896 -0.0555008 0.8357 16.092
1669 2 -0.975428 5.71469 1.62636 18.6225
803 1 1.74278 3.54317 6.35574 16.6346
1196 2 -0.916964 -0.236676 3.22777 19.3159
879 2 -0.955981 6.12722 3.53252 16.899
1918 1 1.98078 7.50099 3.77176 16.1196
760 2 -0.895489 5.12329 6.37423 16.7859
432 2 -0.966789 4.95727 2.99177 21.8446
1531 1 1.88298 4.8847 4.16121 20.756
60 2 -0.990623 3.8575 5.15074 21.3576
848 1 1.88836 1.82795 1.81236 21.7735
1761 2 -0.940598 0.320334 2.15742 22.0838
291 1 1.86682 2.44915 5.87761 21.3379
1636 2 -0.947129 2.11091 2.47511 20.3023
1133 2 -0.914521 1.50059 5.07351 20.287
861 2 -0.897533 6.36525 4.71769 20.6621
1498 2 -0.968906 8.57395 4.25204 17.1969
712 1 1.86729 9.0318 5.76326 17.3161
1745 2 -0.927452 11.0761 2.29031 17.1513
1668 1 1.84745 10.7726 1.42986 18.5341
1360 1 1.78157 11.3194 2.59853 15.5379
1903 2 -0.928357 10.0907 5.97218 18.4702
1921 2 -0.927774 9.79357 6.13891 15.925
1689 2 -0.91088 9.28551 0.746852 18.536
616 2 -0.947156 12.2461 5.46241 15.774
124 2 -0.91681 13.1236 3.64018 19.0488
34 2 -0.990097 14.6913 3.75462 16.971
654 2 -0.918108 13.5896 5.96857 17.8383
631 1 1.85878 14.2882 4.54228 18.2536
496 1 1.87725 14.3279 2.41108 16.2123
1624 2 -0.999418 13.9559 1.22277 17.2506
1284 2 -0.860387 11.063 2.3724 19.8265
433 1 1.84225 10.0232 5.618 20.0588
89 2 -0.924325 11.3139 4.9046 20.6133
1211 2 -0.930971 8.88969 4.52237 20.3574
101 1 1.87957 7.77997 4.43586 21.481
910 1 1.83815 12.1027 3.49698 20.3317
1737 2 -0.934264 14.5713 5.01921 21.7588
1024 2 -0.974671 12.9425 3.01518 21.5827
908 2 -0.870279 2.71937 6.87336 18.0746
1542 1 1.72334 1.42611 7.87332 18.2754
121 2 -0.908209 0.73934 11.6865 18.345
680 2 -0.916052 3.08172 7.42946 15.5405
1821 1 1.82231 2.46856 8.90494 15.7193
554 2 -0.943777 3.62553 10.0098 15.6536
220 2 -0.889061 1.77888 9.00797 17.2105
816 2 -0.881433 4.77305 11.1043 18.2619
81 2 -0.918005 5.67262 8.44188 18.1871
1752 2 -0.866699 -0.00874882 7.18539 17.6566
1792 1 1.79144 5.88439 9.97449 18.6868
391 2 -0.867433 1.27277 8.60706 19.7139
1538 2 -0.953901 6.15599 10.8572 15.4838
1415 1 1.75158 6.33224 7.3791 17.1257
1064 1 1.75445 7.3271 10.1243 16.2914
1355 2 -0.88204 6.95074 8.4955 16.0943
186 2 -0.921136 7.20756 10.4256 17.8979
1827 2 -0.879539 3.13113 10.0217 21.3756
281 1 1.85444 2.00678 8.84384 21.1544
895 2 -0.956828 2.74242 7.45049 21.2435
312 2 -0.984258 -0.0234374 11.4511 21.8012
284 2 -0.908097 6.12263 9.77872 20.2672
1884 1 1.79966 6.52238 9.13418 21.6757
140 2 -0.897756 7.671 6.5647 17.658
1005 2 -0.901634 8.73502 10.5478 15.7404
1126 1 1.86446 10.1411 11.0273 16.3887
1462 2 -0.868894 11.2235 10.0472 15.6652
1502 2 -0.93095 10.2676 10.6405 17.9305
155 1 1.66243 10.6142 11.0427 19.4384
1734 2 -0.95384 12.0387 11.6913 19.6371
14 2 -0.992487 14.6482 6.64361 15.6496
1162 1 1.98771 13.2419 6.5354 16.3871
617 2 -0.942707 12.5124 7.91224 16.3663
919 1 1.91871 12.7184 9.43328 15.7436
1711 1 1.90627 14.9344 10.2584 17.539
886 2 -1.02789 13.5813 10.2045 16.8118
1617 2 -0.880514 14.6147 11.5433 18.5513
1123 2 -0.976105 15.1688 8.92809 18.3798
1432 1 1.8738 13.4956 12.3723 19.4213
1554 2 -0.897064 9.41287 11.5306 20.3329
850 2 -0.875051 9.63333 7.0524 20.7634
653 2 -0.883768 8.18638 9.17407 21.6296
1379 1 1.78253 9.59085 8.37704 21.7264
1457 2 -0.980998 10.8134 9.29702 21.1247
1916 2 -0.946161 13.2785 9.0878 20.0605
1218 1 1.85178 12.4065 9.20372 21.3903
13 2 -0.968856 15.0233 7.16723 20.3626
20 1 1.91058 14.8389 8.65604 19.905
714 1 1.78292 4.51216 12.6876 17.8121
120 1 1.86285 1.48427 13.0752 18.7654
1791 2 -0.954057 4.70619 13.0876 16.2456
1898 2 -0.910077 3.00718 13.1666 18.2871
985 2 -0.946958 2.0024 16.6097 17.6408
528 2 -0.910012 0.479087 14.2236 18.1265
510 2 -0.985484 3.72924 16.0779 15.873
354 1 1.96436 3.52284 16.6338 17.388
876 1 1.91449 0.817798 17.3847 16.862
1195 2 -0.968841 4.24726 15.8149 18.5358
401 2 -0.996368 4.01706 18.1722 17.4661
645 2 -0.94758 1.42619 18.1335 15.5959
1853 2 -0.947138 5.78479 13.4564 18.4959
133 2 -0.925057 -0.150958 16.1779 16.4247
753 2 -0.974823 -0.235223 13.6563 15.7104
1250 2 -0.965581 6.25355 18.0749 16.2175
1845 2 -0.970029 6.97328 15.7244 15.5323
1317 1 1.91772 7.21221 14.1388 18.297
1330 2 -0.927791 7.22144 15.695 18.626
458 2 -0.917911 7.34063 18.2963 19.1672
282 1 1.76861 7.18512 16.8578 19.8359
1746 2 -0.926042 1.51871 12.9449 20.3852
173 1 1.8692 4.4575 15.8093 20.1498
849 1 1.98392 0.740254 12.8514 21.7417
1199 1 1.88318 2.81307 18.0048 21.429
1878 2 -0.936091 4.65304 14.3918 20.8311
395 2 -0.920553 3.16249 16.6175 20.7296
381 1 1.83604 5.53103 13.3042 21.6845
1867 2 -0.97111 5.70925 16.7417 20.4967
638 2 -0.951859 -0.297702 14.0539 21.7842
1384 2 -0.949459 6.79895 12.5519 21.0367
1754 2 -0.898366 10.5138 12.6113 16.0962
1503 2 -0.969947 8.29435 13.4989 19.2127
565 2 -0.918445 7.59852 13.7085 16.7681
1750 2 -0.937675 9.51631 17.2331 16.3448
622 1 1.81391 10.5838 16.4578 17.3032
1822 2 -0.941881 11.0181 15.1393 16.4596
1546 2 -0.507578 10.1148 16.0534 18.7708
546 2 -0.870193 11.773 17.5377 17.4841
1558 1 1.93191 13.9462 15.2144 18.6019
1744 2 -0.918428 13.1833 13.7942 18.7525
92 1 1.89746 14.5005 15.8685 15.7522
954 2 -0.972889 13.7591 15.7639 17.1388
270 2 -0.950925 13.4912 16.2605 19.7394
1882 1 1.85082 8.35503 12.7306 20.6064
1034 2 -0.930136 9.13344 13.565 21.7751
783 2 -0.827738 8.09333 16.7753 21.251
958 2 -0.957273 14.2145 12.6768 20.8625
1934 2 -0.921608 15.3694 17.0518 21.3749
1353 1 1.91545 13.7566 17.1832 21.0118
1857 1 1.84522 1.47103 24.06 19.4568
709 2 -0.898076 0.189763 18.5726 17.6989
158 2 -0.970572 4.80981 22.6832 18.9253
322 2 -0.858655 0.858539 23.1387 15.4969
1078 2 -0.98159 4.58644 22.912 16.2723
413 2 -0.931537 4.71433 19.9839 15.6196
1675 1 1.97467 5.40161 23.2657 17.5957
1720 1 1.86417 5.13417 19.0892 16.8792
1672 2 -0.919209 0.774818 22.5686 19.423
113 2 -0.96845 5.74296 20.0081 18.0454
917 2 -0.914528 -0.238209 20.9564 16.3882
1832 2 -1.05094 6.91874 22.8058 17.6942
1099 1 1.92555 6.8262 19.8174 19.1998
1120 2 -0.888494 1.38302 18.6006 21.1429
487 1 1.84109 4.36324 23.2084 20.4117
337 2 -0.894161 4.16207 21.7984 21.2156
1623 1 1.92666 0.703904 19.7979 22.0386
1208 1 1.91443 4.82229 20.3497 21.4432
341 2 -0.956793 3.85884 19.1463 21.0421
933 2 -0.940306 5.57224 24.1115 21.0231
1463 2 -0.870058 2.94333 23.907 20.1074
630 2 -0.970133 -0.140405 20.8731 21.2242
1053 2 -0.997797 6.17412 20.2701 20.5619
1154 1 1.82118 7.15566 24.0369 21.3607
1 1 1.62476 8.10116 22.141 15.5891
986 2 -0.976056 9.40181 23.1206 18.2821
245 1 1.87917 8.05685 22.4422 18.8208
231 2 -0.899226 8.05089 20.8523 18.8808
1871 2 -0.496206 11.9025 20.0888 18.0896
1322 2 -0.971207 11.0629 24.3183 16.8279
1204 2 -0.914588 14.2185 18.7815 17.9585
1392 2 -0.942723 12.9007 19.0815 15.7547
1288 1 1.76023 12.644 18.8709 17.3786
1364 2 -0.948273 15.2862 21.1199 17.2656
38 1 1.83332 14.5631 22.4667 16.7301
157 2 -0.908805 13.5727 22.8175 17.9301
1045 1 1.90071 13.9575 22.8222 19.5029
197 2 -0.944791 13.8478 21.3156 20.1196
42 2 -0.959068 7.82201 23.0543 20.2543
778 2 -0.919075 10.8489 23.0694 21.0753
1760 2 -0.894878 11.9273 20.6368 21.6754
1452 1 2.03171 11.6032 24.3676 20.5507
1015 2 -0.950985 13.4943 18.6999 20.7078
100 1 1.93262 13.4312 20.2056 21.212
1184 2 -1.03399 13.0521 23.8936 20.2023
1381 2 -0.936809 1.1243 30.4029 18.39
720 2 -0.555463 2.07914 28.3331 19.6541
1583 2 -0.50746 1.76297 24.6212 18.0342
1117 1 1.62791 1.19508 30.3553 16.8431
1883 1 1.78409 0.775293 29.1773 19.3602
1906 2 -1.02021 5.453 26.9285 19.207
1207 1 1.90739 5.49281 30.1037 18.5423
168 2 -0.996651 5.3958 24.8971 17.5659
259 2 -1.00136 4.38935 29.6825 17.4378
695 1 1.93064 5.41725 26.4652 17.6719
1469 1 1.93321 3.6049 28.6592 16.4942
1404 2 -0.921517 2.08274 29.1526 16.4072
1089 2 -0.916119 4.11655 27.1981 17.0081
1687 2 -0.952784 -0.23533 28.288 18.477
841 2 -1.00568 6.84273 26.9746 17.0382
305 2 -0.944758 7.00544 29.5006 18.1926
1664 2 -0.965164 2.24133 30.3699 22.0791
1170 2 -0.934143 0.544443 25.072 20.3248
1929 1 2.01235 5.29873 27.9197 20.3927
1571 2 -0.973591 4.24385 27.3458 21.4102
41 2 -0.949496 -0.0370332 27.1443 21.6805
736 2 -0.964505 -0.0920533 29.5053 20.6897
807 2 -0.925152 6.78021 27.8564 21.1012
949 2 -0.982319 5.10407 29.4251 19.8917
3 1 2.03301 10.028 24.5333 18.0274
1248 2 -0.957146 11.8939 30.3336 18.44
1313 2 -1.01618 8.61207 30.1434 16.1837
605 1 1.90657 8.53144 29.6619 17.6829
273 1 1.91521 8.40682 26.8823 16.883
1935 2 -1.02914 8.8772 25.5222 17.5538
1269 2 -0.900491 9.12908 28.1764 17.6439
1713 1 1.93889 11.8222 24.8927 15.6017
1058 2 -0.99256 10.8517 25.0067 19.3221
584 2 -0.927882 12.616 29.527 15.9549
1506 1 1.90776 13.1314 29.9864 17.5507
477 2 -0.931079 13.2125 25.569 16.1253
1111 2 -0.918317 14.105 28.8082 17.9701
781 2 -0.890834 15.272 27.3038 16.1946
1448 2 -0.912994 10.8699 30.1033 21.9727
144 2 -0.903761 7.91894 25.5086 21.22
1474 2 -0.901017 9.20363 28.0126 21.8715
498 1 1.83332 7.94467 27.008 21.8461
1030 2 -0.94877 11.7496 25.4375 21.7768
534 1 1.79456 14.9779 29.5483 20.8349
1022 2 -0.891985 13.4084 29.8369 20.9741
1501 2 -0.942451 15.1991 27.9478 20.8242
1272 1 1.88435 4.54052 1.12225 27.2777
1493 2 -0.941685 5.26345 2.58035 27.3544
1273 2 -0.975737 4.54076 3.32539 24.4714
555 2 -0.901703 2.5977 2.59007 22.911
516 1 1.86481 4.19236 2.48862 23.1904
1899 2 -0.892108 2.70403 4.23306 27.6479
840 1 1.8962 1.19358 3.60397 27.8666
944 2 -0.969534 4.82565 5.17356 26.3782
1585 1 1.94334 3.29653 5.37159 26.7279
600 2 -0.973331 2.47329 5.38106 25.3739
1259 2 -0.884696 2.9675 1.21692 26.9397
563 2 -0.913942 4.52699 0.910559 23.5445
480 1 1.90128 5.4984 4.40021 25.1339
1348 2 -0.945565 0.507592 3.36727 26.4237
873 2 -0.860142 1.79652 5.80867 22.8652
553 2 -0.955746 5.70777 5.42472 23.8705
1283 2 -0.958911 1.04538 2.24545 28.6648
1524 1 1.88384 6.80171 2.95547 27.1267
601 2 -1.01868 6.76731 3.71074 25.6894
1230 2 -1.00479 6.90465 1.33474 24.3049
655 2 -0.969625 7.27962 3.96488 28.2337
73 1 1.94883 7.42578 5.52979 28.4597
915 2 -0.941572 0.303861 4.6972 28.6585
62 2 -0.940925 4.55727 0.54689 28.7364
1338 2 -0.921275 7.78879 3.14802 22.4764
1715 2 -0.957125 9.28347 2.38873 24.4493
524 1 1.88916 8.12308 1.86826 23.4492
392 2 -0.96937 10.0784 3.47407 26.8504
1576 1 1.93405 10.0023 3.60511 25.2624
1626 2 -0.911233 9.15764 4.97701 25.0381
1265 2 -0.954753 7.63203 1.57685 27.3365
1596 1 1.89837 8.80929 0.706322 28.0559
33 2 -0.988542 11.4832 3.73554 24.7645
388 1 1.76458 10.9099 2.8082 28.0629