ITEM: TIMESTEP
0
ITEM: NUMBER OF ATOMS
1665
ITEM: BOX BOUNDS pp pp ff
-1.2120000000000001e+01 1.2120000000000001e+01
-1.2120000000000001e+01 1.2120000000000001e+01
-2.0199999999999999e+01 2.0199999999999999e+01
ITEM: ATOMS id type xs ys zs
1 5 0 0 0.1
2 5 0.0833333 0.0833333 0.1
3 5 0.0833333 0 0.15
4 5 0 0.0833333 0.15
5 5 0.166667 0 0.1
6 5 0.25 0.0833333 0.1
7 5 0.25 0 0.15
8 5 0.166667 0.0833333 0.15
25 5 0 0.166667 0.1
26 5 0.0833333 0.25 0.1
27 5 0.0833333 0.166667 0.15
28 5 0 0.25 0.15
29 5 0.166667 0.166667 0.1
30 5 0.25 0.25 0.1
31 5 0.25 0.166667 0.15
32 5 0.166667 0.25 0.15
49 5 0 0.333333 0.1
50 5 0.0833333 0.416667 0.1
51 5 0.0833333 0.333333 0.15
52 5 0 0.416667 0.15
53 5 0.166667 0.333333 0.1
54 5 0.25 0.416667 0.1
55 5 0.25 0.333333 0.15
56 5 0.166667 0.416667 0.15
73 5 0 0 0.2
74 5 0.0833333 0.0833333 0.2
75 5 0.166667 0 0.2
76 5 0.25 0.0833333 0.2
85 5 0 0.166667 0.2
86 5 0.0833333 0.25 0.2
87 5 0.166667 0.166667 0.2
88 5 0.25 0.25 0.2
97 5 0 0.333333 0.2
98 5 0.0833333 0.416667 0.2
99 5 0.166667 0.333333 0.2
100 5 0.25 0.416667 0.2
9 5 0.333333 0 0.1
10 5 0.416667 0.0833333 0.1
11 5 0.416667 0 0.15
12 5 0.333333 0.0833333 0.15
13 5 0.5 0 0.1
14 5 0.583333 0.0833333 0.1
15 5 0.583333 0 0.15
16 5 0.5 0.0833333 0.15
17 5 0.666667 0 0.1
20 5 0.666667 0.0833333 0.15
33 5 0.333333 0.166667 0.1
34 5 0.416667 0.25 0.1
35 5 0.416667 0.166667 0.15
36 5 0.333333 0.25 0.15
37 5 0.5 0.166667 0.1
38 5 0.583333 0.25 0.1
39 5 0.583333 0.166667 0.15
40 5 0.5 0.25 0.15
41 5 0.666667 0.166667 0.1
44 5 0.666667 0.25 0.15
57 5 0.333333 0.333333 0.1
58 5 0.416667 0.416667 0.1
59 5 0.416667 0.333333 0.15
60 5 0.333333 0.416667 0.15
61 5 0.5 0.333333 0.1
62 5 0.583333 0.416667 0.1
63 5 0.583333 0.333333 0.15
64 5 0.5 0.416667 0.15
65 5 0.666667 0.333333 0.1
68 5 0.666667 0.416667 0.15
77 5 0.333333 0 0.2
78 5 0.416667 0.0833333 0.2
79 5 0.5 0 0.2
80 5 0.583333 0.0833333 0.2
81 5 0.666667 0 0.2
89 5 0.333333 0.166667 0.2
90 5 0.416667 0.25 0.2
91 5 0.5 0.166667 0.2
92 5 0.583333 0.25 0.2
93 5 0.666667 0.166667 0.2
101 5 0.333333 0.333333 0.2
102 5 0.416667 0.416667 0.2
103 5 0.5 0.333333 0.2
104 5 0.583333 0.416667 0.2
105 5 0.666667 0.333333 0.2
18 5 0.75 0.0833333 0.1
19 5 0.75 0 0.15
21 5 0.833333 0 0.1
22 5 0.916667 0.0833333 0.1
23 5 0.916667 0 0.15
24 5 0.833333 0.0833333 0.15
42 5 0.75 0.25 0.1
43 5 0.75 0.166667 0.15
45 5 0.833333 0.166667 0.1
46 5 0.916667 0.25 0.1
47 5 0.916667 0.166667 0.15
48 5 0.833333 0.25 0.15
66 5 0.75 0.416667 0.1
67 5 0.75 0.333333 0.15
69 5 0.833333 0.333333 0.1
70 5 0.916667 0.416667 0.1
71 5 0.916667 0.333333 0.15
72 5 0.833333 0.416667 0.15
82 5 0.75 0.0833333 0.2
83 5 0.833333 0 0.2
84 5 0.916667 0.0833333 0.2
94 5 0.75 0.25 0.2
95 5 0.833333 0.166667 0.2
96 5 0.916667 0.25 0.2
106 5 0.75 0.416667 0.2
107 5 0.833333 0.333333 0.2
108 5 0.916667 0.416667 0.2
433 1 0.00297525 0.01578 0.300958
436 1 0.0808169 0.0674702 0.300937
437 2 0.114457 0.0873514 0.304555
438 2 0.0547265 0.0951784 0.294509
2394 4 0.262836 0.484512 0.37966
446 2 0.144929 0.00951416 0.313137
448 1 0.256989 0.0870408 0.291561
449 2 0.270635 0.0629123 0.308477
450 2 0.222376 0.100047 0.299962
452 2 0.259764 0.0306279 0.348198
454 1 0.167644 0.0685709 0.353866
455 2 0.183366 0.102109 0.362164
456 2 0.14899 0.07932 0.333969
459 2 0.328089 0.0306363 0.305242
1849 1 0.182489 0.49684 0.499837
508 1 0.0811326 0.251104 0.290431
509 2 0.0795564 0.218603 0.303908
510 2 0.089311 0.280293 0.305661
511 1 0.0743564 0.153436 0.348689
512 2 0.110957 0.155685 0.357561
513 2 0.064687 0.190879 0.34375
514 1 0.00522156 0.237517 0.344724
515 2 0.00133426 0.275188 0.337907
523 1 0.256659 0.175468 0.357064
524 2 0.274896 0.157921 0.338837
525 2 0.218445 0.16661 0.354099
526 1 0.170875 0.247626 0.340762
527 2 0.146927 0.275534 0.349475
528 2 0.182198 0.22684 0.359763
538 1 0.320602 0.255328 0.355018
539 2 0.32197 0.24526 0.332092
1645 1 0.322692 0.488383 0.402097
1634 2 0.15745 0.469067 0.400487
1633 1 0.182747 0.499451 0.400743
1629 2 0.0710881 0.473079 0.442229
1627 1 0.0853775 0.496402 0.459359
1429 1 0.329131 0.484595 0.298602
1424 2 0.279277 0.486398 0.350305
1423 1 0.239761 0.487528 0.349888
578 2 0.0316086 0.326752 0.300029
580 1 0.0814175 0.432611 0.29905
581 2 0.105432 0.408948 0.286658
582 2 0.0631503 0.408441 0.314292
583 1 0.0788439 0.331272 0.359217
584 2 0.113555 0.322032 0.349304
585 2 0.0576009 0.346696 0.341479
1418 2 0.176681 0.478874 0.28664
1412 2 0.111579 0.486958 0.35518
1411 1 0.0739307 0.487344 0.347937
592 1 0.246461 0.425783 0.307702
593 2 0.276018 0.399803 0.305404
594 2 0.227522 0.424415 0.286894
595 1 0.248129 0.322591 0.342862
596 2 0.280388 0.329051 0.356019
597 2 0.221483 0.348358 0.351118
598 1 0.166266 0.411369 0.359142
599 2 0.144094 0.399279 0.340889
600 2 0.18964 0.439352 0.349969
1033 1 0.324865 0.333908 0.491765
1025 2 0.270118 0.392552 0.495504
1023 2 0.154726 0.362939 0.497101
1022 2 0.191014 0.312158 0.499329
1014 2 0.0797021 0.439811 0.48667
1012 1 0.0743719 0.404403 0.49673
963 2 0.314998 0.193221 0.499369
961 1 0.323611 0.154848 0.496928
941 2 0.0528964 0.243072 0.495051
940 1 0.0914476 0.249749 0.491632
879 2 0.14923 0.0269923 0.498121
652 1 0.0763159 0.0693076 0.39772
653 2 0.106472 0.0753358 0.412629
654 2 0.0672117 0.105357 0.389651
870 2 0.0607394 0.0632209 0.493227
660 2 0.026424 0.0663635 0.454499
868 1 0.0928271 0.0862772 0.492372
667 1 0.256866 0.00271273 0.45861
669 2 0.263907 0.0214016 0.438136
670 1 0.162661 0.0691566 0.446048
671 2 0.194593 0.0775886 0.45909
672 2 0.142745 0.103255 0.444862
675 2 0.312886 0.0158635 0.388417
819 2 0.317865 0.361601 0.401212
817 1 0.321572 0.32241 0.399006
816 2 0.164472 0.445314 0.458837
815 2 0.184139 0.393035 0.441979
814 1 0.151389 0.41165 0.449184
813 2 0.21818 0.329905 0.452555
812 2 0.275443 0.350194 0.443684
828 2 0.332061 0.443628 0.46063
826 1 0.330739 0.421655 0.440924
811 1 0.256378 0.3199 0.453761
807 2 0.142904 0.340309 0.387571
806 2 0.180532 0.336014 0.417421
805 1 0.176563 0.323676 0.395008
803 2 0.0245132 0.419907 0.437543
801 2 0.0779255 0.335896 0.469036
800 2 0.0735214 0.32576 0.432112
799 1 0.0985531 0.338344 0.448851
724 1 0.0927719 0.242412 0.406399
725 2 0.0602505 0.228551 0.395776
726 2 0.0969776 0.279036 0.397825
727 1 0.086451 0.150836 0.450181
728 2 0.091482 0.175928 0.432098
729 2 0.0720671 0.173235 0.467721
794 2 0.00891562 0.337331 0.418464
793 1 0.0100661 0.342766 0.394976
733 1 0.171152 0.155204 0.393738
734 2 0.193115 0.172322 0.41058
735 2 0.135733 0.172474 0.395682
736 1 0.260792 0.261987 0.400308
737 2 0.267321 0.223309 0.403285
738 2 0.221887 0.264704 0.396406
739 1 0.252946 0.161911 0.440918
740 2 0.255563 0.140403 0.460762
741 2 0.241491 0.197686 0.44832
742 1 0.154277 0.243308 0.445271
743 2 0.16588 0.236426 0.46757
744 2 0.179844 0.270266 0.437159
746 2 0.315058 0.192866 0.397183
2393 4 0.44395 0.473926 0.410236
460 1 0.416044 0.068513 0.303813
461 2 0.447967 0.0880893 0.2962
462 2 0.385989 0.0933977 0.299987
465 2 0.398823 0.0207244 0.360297
2380 3 0.52175 0.0495043 0.307747
2379 3 0.64765 0.060453 0.313548
2378 3 0.566789 0.0241724 0.406531
852 2 0.651038 0.444543 0.447244
470 2 0.517272 0.00567367 0.283991
471 2 0.485991 0.0101191 0.316363
472 1 0.59173 0.0968539 0.301598
473 2 0.581935 0.0688887 0.317305
474 2 0.576335 0.0842573 0.281097
850 1 0.655223 0.406382 0.45292
2377 3 0.631665 0.395041 0.482905
478 1 0.486639 0.0875305 0.34519
479 2 0.489396 0.0647711 0.364517
480 2 0.523965 0.0976984 0.340293
490 1 0.660401 0.097531 0.352655
491 2 0.641032 0.0651668 0.34554
1885 1 0.657142 0.486975 0.499883
1874 2 0.523825 0.478229 0.499463
1861 1 0.336829 0.490292 0.492556
1659 2 0.521502 0.496656 0.414311
1657 1 0.506617 0.492247 0.392493
1652 2 0.447947 0.492884 0.447807
1651 1 0.409152 0.48575 0.449435
1646 2 0.361832 0.48485 0.399494
532 1 0.415125 0.2348 0.303118
533 2 0.399923 0.26755 0.312785
534 2 0.434952 0.247649 0.284097
535 1 0.421851 0.180662 0.353682
536 2 0.425737 0.144507 0.362996
537 2 0.402412 0.17483 0.333323
540 2 0.357427 0.249411 0.36289
541 1 0.484283 0.163675 0.298736
542 2 0.501659 0.181214 0.317265
543 2 0.514058 0.155111 0.283998
553 1 0.659985 0.152043 0.299174
555 2 0.6423 0.18586 0.305378
1448 2 0.610267 0.491813 0.340513
1447 1 0.571975 0.490283 0.346351
1441 1 0.498519 0.485034 0.296489
1436 2 0.447778 0.492042 0.347991
1435 1 0.408919 0.485854 0.350314
1430 2 0.361659 0.498395 0.309247
1050 2 0.557915 0.431926 0.492329
1048 1 0.595553 0.427069 0.498984
1046 2 0.505487 0.351654 0.484392
1045 1 0.511657 0.322181 0.499766
604 1 0.408496 0.41675 0.291651
605 2 0.42326 0.385508 0.30318
606 2 0.418244 0.447743 0.305169
607 1 0.408552 0.334484 0.35834
608 2 0.411314 0.361512 0.341105
609 2 0.430134 0.304004 0.350554
616 1 0.58353 0.400531 0.29999
617 2 0.608454 0.425061 0.288922
618 2 0.558016 0.424408 0.311088
987 2 0.659579 0.185846 0.485008
966 2 0.415391 0.278598 0.491041
625 1 0.665692 0.341029 0.30849
627 2 0.653424 0.304426 0.303365
635 2 0.647344 0.442447 0.348737
906 2 0.569565 0.0651796 0.486275
903 2 0.507065 0.0213538 0.486102
892 1 0.423502 0.0740045 0.493247
842 2 0.649411 0.359009 0.394455
841 1 0.656995 0.320735 0.398288
840 2 0.525292 0.432838 0.442869
839 2 0.479364 0.391852 0.449447
838 1 0.495344 0.42531 0.457684
822 2 0.440314 0.4003 0.408805
821 2 0.385405 0.421322 0.396043
820 1 0.42428 0.428378 0.395152
837 2 0.573047 0.305402 0.442495
836 2 0.594265 0.350852 0.464892
835 1 0.582689 0.343746 0.442613
676 1 0.405033 0.0721599 0.399721
677 2 0.444148 0.0663939 0.399695
678 2 0.400819 0.111446 0.400584
834 2 0.566331 0.443632 0.403071
833 2 0.598565 0.390372 0.406545
818 2 0.360563 0.315989 0.399783
832 1 0.585104 0.415996 0.390385
831 2 0.524489 0.314102 0.394879
688 1 0.583519 0.0993782 0.398972
689 2 0.581144 0.0720225 0.381903
690 2 0.585336 0.0785993 0.419125
830 2 0.469183 0.33772 0.405144
829 1 0.506328 0.348178 0.399977
694 1 0.492712 0.0700254 0.453297
695 2 0.514725 0.0957521 0.465547
696 2 0.492563 0.0842226 0.431157
827 2 0.337199 0.384717 0.448445
706 1 0.65876 0.0705352 0.453504
708 2 0.644424 0.106706 0.449287
745 1 0.347321 0.172456 0.403353
747 2 0.337621 0.134678 0.399464
748 1 0.407219 0.255425 0.407143
749 2 0.404752 0.263763 0.384001
750 2 0.438029 0.230812 0.408857
751 1 0.407064 0.179629 0.449747
752 2 0.432175 0.169028 0.466932
753 2 0.41076 0.151342 0.433321
780 2 0.659492 0.273797 0.437635
778 1 0.65321 0.247985 0.455206
766 1 0.505778 0.235663 0.447219
767 2 0.471793 0.252715 0.440716
768 2 0.522428 0.261622 0.462065
769 1 0.658764 0.153052 0.40213
771 2 0.645786 0.190223 0.404306
864 2 0.809895 0.437209 0.444942
863 2 0.86368 0.410684 0.455555
862 1 0.826425 0.402106 0.449503
2395 4 0.786418 0.333863 0.396299
861 2 0.891827 0.353617 0.447756
2392 4 0.972003 0.460781 0.439965
860 2 0.946938 0.32716 0.455628
859 1 0.911235 0.319223 0.446616
858 2 0.887142 0.42078 0.392559
857 2 0.948814 0.4185 0.398579
856 1 0.914044 0.41072 0.408862
855 2 0.828738 0.306277 0.410205
854 2 0.832645 0.349662 0.383293
853 1 0.838617 0.34406 0.406502
851 2 0.693739 0.399075 0.449836
481 1 0.674771 0.0139171 0.300614
849 2 0.767453 0.35972 0.446131
848 2 0.741571 0.309137 0.461787
484 1 0.740134 0.0705634 0.300009
485 2 0.779672 0.0706052 0.3
486 2 0.730194 0.108831 0.299991
847 1 0.740975 0.331144 0.442082
846 2 0.732917 0.389645 0.397288
489 2 0.773343 0.0138781 0.339523
492 2 0.698567 0.0873022 0.351804
493 1 0.839831 0.0126799 0.304546
494 2 0.830845 0.00940301 0.281528
845 2 0.767361 0.436295 0.411317
496 1 0.92663 0.0958201 0.298628
497 2 0.922506 0.0636795 0.285035
498 2 0.900865 0.0905004 0.316337
499 1 0.918907 0.00219091 0.359498
844 1 0.749723 0.424059 0.391395
501 2 0.894288 0.021825 0.345153
1897 1 0.839361 0.486477 0.496149
1886 2 0.696632 0.488112 0.498926
516 2 0.993444 0.237295 0.367369
1837 1 0.989533 0.488656 0.497175
1688 2 0.894223 0.497731 0.436141
1687 1 0.915432 0.486154 0.454918
1676 2 0.726269 0.482919 0.441784
1473 2 0.886028 0.491502 0.346635
1471 1 0.925111 0.492468 0.343097
1461 2 0.740966 0.474945 0.33905
1459 1 0.755257 0.493313 0.358228
554 2 0.697715 0.162098 0.295448
556 1 0.736633 0.241423 0.298286
557 2 0.746072 0.261315 0.31799
558 2 0.767296 0.247261 0.283725
565 1 0.825042 0.152937 0.301067
566 2 0.864092 0.157226 0.298392
567 2 0.810866 0.189836 0.300541
568 1 0.926898 0.262187 0.301611
569 2 0.922731 0.228992 0.314253
570 2 0.900371 0.258821 0.284136
571 1 0.903708 0.169996 0.344587
572 2 0.933878 0.193982 0.349874
573 2 0.912414 0.136022 0.355539
577 1 0.993899 0.323901 0.306951
579 2 0.974493 0.349347 0.29302
1074 2 0.887814 0.425973 0.493336
1071 2 0.852924 0.33444 0.484616
1002 2 0.900153 0.277728 0.499441
1000 1 0.905463 0.238564 0.498784
998 2 0.859756 0.166415 0.488869
626 2 0.680884 0.354544 0.288145
631 1 0.747112 0.329679 0.35927
632 2 0.74186 0.36447 0.348449
633 2 0.761028 0.305851 0.342281
634 1 0.680132 0.422272 0.354143
636 2 0.672524 0.385281 0.34712
939 2 0.987045 0.157884 0.483056
918 2 0.746099 0.0942826 0.481927
640 1 0.926868 0.410042 0.293637
641 2 0.935025 0.42351 0.315397
642 2 0.888107 0.416448 0.290966
646 1 0.818198 0.413642 0.347174
647 2 0.847122 0.387544 0.351224
648 2 0.83468 0.448814 0.351602
843 2 0.693594 0.320256 0.407257
651 2 0.979085 0.0245765 0.4006
658 1 0.98992 0.0724804 0.446157
659 2 0.983656 0.111156 0.449344
700 1 0.742614 0.089504 0.392228
701 2 0.77279 0.0639698 0.392699
702 2 0.734596 0.0965263 0.415073
704 2 0.748749 0.00854773 0.431334
707 2 0.696816 0.0727588 0.447208
712 1 0.902288 0.0761171 0.400759
713 2 0.937619 0.0590181 0.397903
714 2 0.910093 0.114865 0.401338
716 2 0.944767 0.00256782 0.440586
717 2 0.898603 0.00405395 0.465871
804 2 0.980404 0.428677 0.463605
802 1 0.995083 0.401417 0.448852
795 2 0.981018 0.319903 0.38656
792 2 0.859957 0.245427 0.46061
791 2 0.816476 0.266713 0.436869
790 1 0.823567 0.23786 0.452521
786 2 0.911337 0.259938 0.418152
785 2 0.929299 0.254426 0.382371
784 1 0.909364 0.235636 0.399477
779 2 0.687297 0.228218 0.457159
774 2 0.740961 0.280939 0.401118
773 2 0.771914 0.227338 0.395815
772 1 0.737125 0.241722 0.403067
770 2 0.695451 0.156724 0.393564
869 2 0.0964335 0.100502 0.514401
872 2 0.115595 6.89066e-05 0.549246
873 2 0.0549212 0.015098 0.548388
2396 4 0.117222 0.147125 0.58965
2381 3 0.271685 0.215002 0.518072
885 2 0.232057 0.0192985 0.538807
886 1 0.165062 0.0681819 0.55319
887 2 0.154127 0.0828156 0.532152
888 2 0.180811 0.0990024 0.564658
898 1 0.32211 0.0772289 0.555915
900 2 0.323059 0.113272 0.546181
2077 1 0.320272 0.492323 0.596667
2066 2 0.149883 0.475501 0.592397
1383 2 0.321429 0.362314 0.70468
2061 2 0.0799785 0.489833 0.631724
2059 1 0.0798852 0.487043 0.655388
1381 1 0.326376 0.329784 0.691527
1380 2 0.268782 0.420733 0.684433
1379 2 0.246239 0.410557 0.718888
1378 1 0.23498 0.41871 0.696679
2054 2 0.0318725 0.495743 0.601744
1377 2 0.165797 0.321303 0.717969
1376 2 0.1643 0.329687 0.680804
1375 1 0.169902 0.34901 0.701226
1374 2 0.0640387 0.399798 0.688218
1373 2 0.08881 0.441868 0.711655
1372 1 0.0971512 0.408334 0.700127
938 2 0.0253343 0.175642 0.510734
1371 2 0.0259496 0.317141 0.706202
942 2 0.105656 0.257179 0.513316
943 1 0.077074 0.151968 0.548635
944 2 0.111147 0.166217 0.540166
945 2 0.0617788 0.181815 0.561199
947 2 0.0258438 0.251041 0.538405
955 1 0.236139 0.158597 0.551066
956 2 0.267134 0.148805 0.537561
957 2 0.246728 0.192598 0.561373
1856 2 0.277766 0.484458 0.546717
1855 1 0.239233 0.48825 0.551522
1844 2 0.0561554 0.48705 0.557
1843 1 0.0936094 0.499694 0.557463
1839 2 0.0109339 0.489549 0.517115
1309 1 0.320847 0.0102023 0.700387
1302 2 0.0528349 0.0761141 0.695347
1301 2 0.105368 0.103579 0.707275
1300 1 0.0917971 0.0703072 0.697378
1013 2 0.0959259 0.405786 0.5166
1015 1 0.080906 0.344261 0.556974
1016 2 0.115451 0.330796 0.548734
1017 2 0.0536431 0.324943 0.544292
1018 1 0.00875953 0.406648 0.544523
1020 2 0.0152343 0.41705 0.567078
1021 1 0.15426 0.324903 0.50357
1024 1 0.236396 0.409293 0.502748
1026 2 0.243485 0.448155 0.501748
1027 1 0.258094 0.326132 0.557176
1028 2 0.225662 0.348572 0.558856
1029 2 0.266244 0.325296 0.533968
1347 2 0.327163 0.198284 0.701303
1345 1 0.318814 0.159832 0.698981
1341 2 0.190698 0.14837 0.706845
1340 2 0.135764 0.170664 0.694927
1339 1 0.173538 0.180966 0.698228
1338 2 0.0572574 0.268828 0.701694
1337 2 0.112379 0.240249 0.70611
1083 2 0.00165844 0.0162431 0.616712
1249 1 0.318035 0.328408 0.599129
1248 2 0.186088 0.426027 0.66442
1247 2 0.149195 0.423154 0.634181
1336 1 0.080364 0.240923 0.692195
1088 2 0.114474 0.000727821 0.655098
1089 2 0.0571015 0.0141317 0.642539
1091 2 0.013547 0.0547074 0.653769
1093 1 0.17362 0.00192471 0.591339
1094 2 0.182451 0.0204635 0.611612
1096 1 0.248611 0.0701114 0.594512
1097 2 0.281431 0.0848852 0.60433
1098 2 0.219958 0.0950034 0.601157
1334 2 0.0312656 0.160317 0.697026
1101 2 0.272698 0.0205968 0.64391
1246 1 0.164716 0.400818 0.651399
1245 2 0.227727 0.35575 0.646028
1244 2 0.280655 0.324633 0.653118
1243 1 0.241618 0.319617 0.650854
1239 2 0.186597 0.315473 0.589164
1238 2 0.161232 0.353204 0.614916
1237 1 0.152171 0.331324 0.59592
1233 2 0.0692335 0.34838 0.664906
1232 2 0.104917 0.332558 0.635601
1231 1 0.0758492 0.319062 0.649493
1226 2 0.0224128 0.322656 0.612385
1154 2 0.024755 0.145986 0.599166
1156 1 0.0721157 0.254421 0.606435
1157 2 0.111333 0.253565 0.609406
1158 2 0.0665513 0.242014 0.584159
1159 1 0.0929291 0.174108 0.643623
1160 2 0.0633919 0.148931 0.639097
1161 2 0.093679 0.17696 0.66728
1165 1 0.16534 0.178166 0.593254
1166 2 0.172937 0.13975 0.589985
1167 2 0.161723 0.182084 0.61676
1168 1 0.261979 0.252475 0.606315
1169 2 0.26469 0.238668 0.584146
1170 2 0.223331 0.258857 0.609539
1188 2 0.305309 0.233994 0.64944
2398 4 0.664565 0.346218 0.653358
2397 4 0.433053 0.319065 0.508598
1395 2 0.636 0.341249 0.696238
1393 1 0.665954 0.325107 0.708319
2085 2 0.445855 0.488331 0.654422
893 2 0.43627 0.108884 0.501378
894 2 0.390227 0.0671114 0.505375
895 1 0.402007 0.00347373 0.55347
896 2 0.435575 0.0236479 0.556726
2078 2 0.358222 0.483441 0.592681
899 2 0.354831 0.0594987 0.547905
901 1 0.492191 0.00861993 0.506712
904 1 0.580165 0.0755492 0.508266
905 2 0.60027 0.109271 0.50546
909 2 0.580001 0.0320618 0.551099
1382 2 0.352195 0.307903 0.703792
914 2 0.654323 0.0297993 0.500861
1868 2 0.442679 0.483206 0.54451
1867 1 0.409414 0.490575 0.556545
1863 2 0.336324 0.48118 0.515638
962 2 0.36139 0.151931 0.503703
964 1 0.401787 0.247845 0.503518
965 2 0.432821 0.223557 0.505441
967 1 0.425268 0.163038 0.557898
968 2 0.405157 0.196271 0.553474
969 2 0.419575 0.140691 0.538628
1310 2 0.354449 0.014329 0.688132
979 1 0.57238 0.178515 0.550118
980 2 0.577098 0.149473 0.565964
981 2 0.600522 0.172012 0.533918
982 1 0.500918 0.261727 0.543371
983 2 0.49247 0.22355 0.539851
984 2 0.506612 0.264723 0.566778
985 1 0.652374 0.16104 0.502968
1356 2 0.581334 0.253643 0.680789
1355 2 0.578815 0.232552 0.716072
1354 1 0.589851 0.263805 0.703138
1353 2 0.515677 0.156423 0.68422
1352 2 0.483548 0.160815 0.716294
1351 1 0.500775 0.182762 0.699486
1034 2 0.341124 0.364092 0.503581
1035 2 0.334011 0.302 0.504654
1275 2 0.658167 0.341479 0.618038
1346 2 0.354023 0.141885 0.699716
1039 1 0.410338 0.329315 0.541426
1040 2 0.395151 0.322744 0.562971
1041 2 0.444511 0.347941 0.545603
1274 2 0.659257 0.32254 0.582292
1272 2 0.482544 0.428146 0.63523
1271 2 0.526752 0.416642 0.660846
1047 2 0.482856 0.326165 0.515842
1270 1 0.490703 0.405212 0.653924
1049 2 0.596532 0.391004 0.508688
1266 2 0.556716 0.434572 0.597806
1051 1 0.569379 0.328296 0.54619
1052 2 0.590474 0.311186 0.563429
1053 2 0.590147 0.360518 0.540381
1265 2 0.613809 0.413073 0.606022
1264 1 0.579475 0.402356 0.596172
1263 2 0.488251 0.363371 0.60087
1262 2 0.522895 0.311593 0.604053
1261 1 0.488854 0.325035 0.595077
1257 2 0.437798 0.354818 0.656954
1256 2 0.386425 0.32271 0.647673
1066 1 0.665339 0.40073 0.548705
1068 2 0.637148 0.428145 0.546237
1255 1 0.425777 0.322472 0.645373
1251 2 0.339364 0.349142 0.583501
1250 2 0.342601 0.32245 0.61737
1105 1 0.343032 0.00523973 0.592929
1107 2 0.350584 0.00395479 0.616202
1108 1 0.409094 0.0697587 0.602601
1109 2 0.410772 0.103928 0.614494
1110 2 0.430135 0.0763135 0.582905
1120 1 0.577894 0.0682646 0.601164
1121 2 0.613793 0.0823528 0.606398
1122 2 0.558313 0.0993826 0.592438
1138 1 0.665614 0.0750543 0.658287
1140 2 0.63988 0.101346 0.649598
1317 2 0.487058 0.0276769 0.706261
1212 2 0.646041 0.252539 0.635174
1200 2 0.502419 0.253988 0.669169
1199 2 0.508711 0.257558 0.631906
1198 1 0.48887 0.238454 0.648925
1197 2 0.610878 0.182333 0.646287
1196 2 0.551957 0.166612 0.654568
1195 1 0.587165 0.151056 0.649145
1194 2 0.586953 0.273338 0.586791
1193 2 0.583163 0.218811 0.605007
1192 1 0.579883 0.257851 0.608202
1187 2 0.355846 0.268396 0.641574
1186 1 0.338845 0.24761 0.658986
1404 2 0.94279 0.401482 0.693174
1403 2 0.893947 0.420742 0.713545
1402 1 0.913263 0.427776 0.693281
1401 2 0.827992 0.35792 0.68786
1400 2 0.851043 0.318801 0.713651
1399 1 0.820965 0.323279 0.69849
1398 2 0.728997 0.440765 0.697281
1397 2 0.779284 0.403618 0.697708
1396 1 0.741719 0.405617 0.705011
2114 2 0.855271 0.493532 0.586327
1394 2 0.698046 0.333645 0.695443
2113 1 0.819502 0.494199 0.596427
2109 2 0.739953 0.471468 0.656772
2107 1 0.749675 0.49833 0.640372
2295 2 0.686477 0.482918 0.711356
2299 1 0.841714 0.487901 0.703971
2300 2 0.805071 0.499723 0.709365
916 1 0.740481 0.0703292 0.500497
917 2 0.76342 0.0853882 0.517576
921 2 0.733886 0.0266921 0.54497
2053 1 0.993833 0.485125 0.600628
1904 2 0.890359 0.492349 0.560249
927 2 0.813571 0.0245445 0.504219
1899 2 0.840758 0.498052 0.518816
933 2 0.92642 0.023276 0.562083
934 1 0.825235 0.069421 0.550678
935 2 0.862479 0.0767186 0.557329
936 2 0.812286 0.10386 0.541994
937 1 0.98762 0.166474 0.50621
1370 2 0.978012 0.339941 0.68638
1369 1 0.996039 0.342918 0.707418
946 1 0.99676 0.234268 0.550935
948 2 0.977396 0.264691 0.56066
1892 2 0.772563 0.480193 0.542874
1891 1 0.737158 0.490521 0.551424
1365 2 0.839089 0.165518 0.680951
1364 2 0.841564 0.175651 0.71794
1363 1 0.819347 0.158832 0.70111
1362 2 0.778937 0.248251 0.708528
1361 2 0.731547 0.251163 0.684119
1360 1 0.739517 0.250586 0.707353
986 2 0.688047 0.153114 0.512024
1299 2 0.978885 0.0227575 0.694678
1296 2 0.839336 0.438383 0.636125
1295 2 0.838424 0.387905 0.658255
1294 1 0.82224 0.423711 0.65562
991 1 0.736038 0.164166 0.545382
992 2 0.771616 0.149456 0.539979
993 2 0.742346 0.186378 0.564639
1293 2 0.89355 0.354915 0.653901
1292 2 0.930219 0.311455 0.638303
1291 1 0.926231 0.33363 0.657796
997 1 0.830365 0.151091 0.501801
1290 2 0.898702 0.392781 0.592671
999 2 0.809879 0.182493 0.50933
1001 2 0.944384 0.233708 0.501775
1003 1 0.906364 0.154578 0.55171
1004 2 0.94276 0.152271 0.542546
1005 2 0.900877 0.193151 0.555744
1006 1 0.822957 0.237668 0.549513
1007 2 0.86245 0.23605 0.550089
1008 2 0.814593 0.276282 0.550398
1289 2 0.922814 0.448082 0.602527
1288 1 0.928484 0.409137 0.604802
1019 2 0.976006 0.426302 0.538398
1287 2 0.831258 0.328313 0.580904
1286 2 0.845317 0.325923 0.61743
1285 1 0.823425 0.345764 0.601666
1278 2 0.738458 0.396684 0.586451
1277 2 0.771916 0.438023 0.606178
1276 1 0.739626 0.415293 0.60737
1273 1 0.682576 0.335981 0.59967
1063 1 0.753279 0.318867 0.553814
1064 2 0.778907 0.347183 0.547675
1065 2 0.717815 0.333949 0.548511
1067 2 0.697513 0.421125 0.555058
1069 1 0.843062 0.335876 0.507573
1070 2 0.804014 0.329684 0.507811
1072 1 0.914136 0.401856 0.503532
1073 2 0.94805 0.422171 0.503132
1075 1 0.90334 0.34177 0.552047
1076 2 0.909745 0.31814 0.533419
1077 2 0.936914 0.340089 0.564534
1081 1 0.99008 0.00878686 0.594475
1090 1 0.990697 0.0862991 0.657709
1092 2 0.995756 0.108993 0.638522
1335 2 0.975106 0.187215 0.700412
1333 1 0.993628 0.152468 0.702561
1332 2 0.92804 0.053193 0.69871
1331 2 0.91257 0.110889 0.709792
1330 1 0.909389 0.0859179 0.691498
1329 2 0.811937 0.0239462 0.697992
1227 2 0.990388 0.353456 0.585991
1225 1 0.987199 0.323888 0.601624
1224 2 0.820094 0.278103 0.644723
1223 2 0.858911 0.232296 0.655189
1222 1 0.820995 0.2396 0.650088
1221 2 0.892378 0.187938 0.650113
1220 2 0.94795 0.159534 0.647846
1132 1 0.745468 0.067848 0.599838
1133 2 0.768047 0.0859962 0.615983
1134 2 0.736485 0.0961558 0.584178
1219 1 0.909671 0.152528 0.652041
1218 2 0.927004 0.252284 0.618301
1137 2 0.732246 0.0269494 0.65058
1139 2 0.694505 0.0735997 0.642115
1217 2 0.919033 0.257638 0.581231
1216 1 0.903964 0.240079 0.600467
1215 2 0.815874 0.145762 0.589597
1144 1 0.909014 0.0755871 0.592854
1145 2 0.945947 0.0697609 0.600568
1146 2 0.895039 0.104652 0.606578
1214 2 0.844423 0.196488 0.603295
1213 1 0.839703 0.15775 0.607108
1150 1 0.829376 0.0935351 0.642884
1151 2 0.835019 0.0544842 0.641361
1152 2 0.835604 0.101981 0.665755
1153 1 0.986982 0.157271 0.60098
1155 2 0.988263 0.196743 0.599854
1211 2 0.673813 0.253399 0.668781
1210 1 0.680146 0.244063 0.646045
1206 2 0.756024 0.280052 0.606089
1205 2 0.755545 0.225302 0.587975
1204 1 0.73843 0.244646 0.605936
109 5 0 0 0.8
110 5 0.0833333 0.0833333 0.8
111 5 0.0833333 0 0.85
112 5 0 0.0833333 0.85
113 5 0.166667 0 0.8
114 5 0.25 0.0833333 0.8
115 5 0.25 0 0.85
116 5 0.166667 0.0833333 0.85
133 5 0 0.166667 0.8
134 5 0.0833333 0.25 0.8
135 5 0.0833333 0.166667 0.85
136 5 0 0.25 0.85
137 5 0.166667 0.166667 0.8
138 5 0.25 0.25 0.8
139 5 0.25 0.166667 0.85
140 5 0.166667 0.25 0.85
157 5 0 0.333333 0.8
158 5 0.0833333 0.416667 0.8
159 5 0.0833333 0.333333 0.85
160 5 0 0.416667 0.85
161 5 0.166667 0.333333 0.8
162 5 0.25 0.416667 0.8
163 5 0.25 0.333333 0.85
164 5 0.166667 0.416667 0.85
181 5 0 0 0.9
182 5 0.0833333 0.0833333 0.9
183 5 0.166667 0 0.9
184 5 0.25 0.0833333 0.9
193 5 0 0.166667 0.9
194 5 0.0833333 0.25 0.9
195 5 0.166667 0.166667 0.9
196 5 0.25 0.25 0.9
205 5 0 0.333333 0.9
206 5 0.0833333 0.416667 0.9
207 5 0.166667 0.333333 0.9
208 5 0.25 0.416667 0.9
117 5 0.333333 0 0.8
118 5 0.416667 0.0833333 0.8
119 5 0.416667 0 0.85
120 5 0.333333 0.0833333 0.85
121 5 0.5 0 0.8
122 5 0.583333 0.0833333 0.8
123 5 0.583333 0 0.85
124 5 0.5 0.0833333 0.85
125 5 0.666667 0 0.8
128 5 0.666667 0.0833333 0.85
141 5 0.333333 0.166667 0.8
142 5 0.416667 0.25 0.8
143 5 0.416667 0.166667 0.85
144 5 0.333333 0.25 0.85
145 5 0.5 0.166667 0.8
146 5 0.583333 0.25 0.8
147 5 0.583333 0.166667 0.85
148 5 0.5 0.25 0.85
149 5 0.666667 0.166667 0.8
152 5 0.666667 0.25 0.85
165 5 0.333333 0.333333 0.8
166 5 0.416667 0.416667 0.8
167 5 0.416667 0.333333 0.85
168 5 0.333333 0.416667 0.85
169 5 0.5 0.333333 0.8
170 5 0.583333 0.416667 0.8
171 5 0.583333 0.333333 0.85
172 5 0.5 0.416667 0.85
173 5 0.666667 0.333333 0.8
176 5 0.666667 0.416667 0.85
185 5 0.333333 0 0.9
186 5 0.416667 0.0833333 0.9
187 5 0.5 0 0.9
188 5 0.583333 0.0833333 0.9
189 5 0.666667 0 0.9
197 5 0.333333 0.166667 0.9
198 5 0.416667 0.25 0.9
199 5 0.5 0.166667 0.9
200 5 0.583333 0.25 0.9
201 5 0.666667 0.166667 0.9
209 5 0.333333 0.333333 0.9
210 5 0.416667 0.416667 0.9
211 5 0.5 0.333333 0.9
212 5 0.583333 0.416667 0.9
213 5 0.666667 0.333333 0.9
126 5 0.75 0.0833333 0.8
127 5 0.75 0 0.85
129 5 0.833333 0 0.8
130 5 0.916667 0.0833333 0.8
131 5 0.916667 0 0.85
132 5 0.833333 0.0833333 0.85
150 5 0.75 0.25 0.8
151 5 0.75 0.166667 0.85
153 5 0.833333 0.166667 0.8
154 5 0.916667 0.25 0.8
155 5 0.916667 0.166667 0.85
156 5 0.833333 0.25 0.85
174 5 0.75 0.416667 0.8
175 5 0.75 0.333333 0.85
177 5 0.833333 0.333333 0.8
178 5 0.916667 0.416667 0.8
179 5 0.916667 0.333333 0.85
180 5 0.833333 0.416667 0.85
190 5 0.75 0.0833333 0.9
191 5 0.833333 0 0.9
192 5 0.916667 0.0833333 0.9
202 5 0.75 0.25 0.9
203 5 0.833333 0.166667 0.9
204 5 0.916667 0.25 0.9
214 5 0.75 0.416667 0.9
215 5 0.833333 0.333333 0.9
216 5 0.916667 0.416667 0.9
217 5 0 0.5 0.1
218 5 0.0833333 0.583333 0.1
219 5 0.0833333 0.5 0.15
220 5 0 0.583333 0.15
221 5 0.166667 0.5 0.1
222 5 0.25 0.583333 0.1
223 5 0.25 0.5 0.15
224 5 0.166667 0.583333 0.15
241 5 0 0.666667 0.1
242 5 0.0833333 0.75 0.1
243 5 0.0833333 0.666667 0.15
244 5 0 0.75 0.15
245 5 0.166667 0.666667 0.1
246 5 0.25 0.75 0.1
247 5 0.25 0.666667 0.15
248 5 0.166667 0.75 0.15
265 5 0 0.833333 0.1
266 5 0.0833333 0.916667 0.1
267 5 0.0833333 0.833333 0.15
268 5 0 0.916667 0.15
269 5 0.166667 0.833333 0.1
270 5 0.25 0.916667 0.1
271 5 0.25 0.833333 0.15
272 5 0.166667 0.916667 0.15
289 5 0 0.5 0.2
290 5 0.0833333 0.583333 0.2
291 5 0.166667 0.5 0.2
292 5 0.25 0.583333 0.2
301 5 0 0.666667 0.2
302 5 0.0833333 0.75 0.2
303 5 0.166667 0.666667 0.2
304 5 0.25 0.75 0.2
313 5 0 0.833333 0.2
314 5 0.0833333 0.916667 0.2
315 5 0.166667 0.833333 0.2
316 5 0.25 0.916667 0.2
225 5 0.333333 0.5 0.1
226 5 0.416667 0.583333 0.1
227 5 0.416667 0.5 0.15
228 5 0.333333 0.583333 0.15
229 5 0.5 0.5 0.1
230 5 0.583333 0.583333 0.1
231 5 0.583333 0.5 0.15
232 5 0.5 0.583333 0.15
233 5 0.666667 0.5 0.1
236 5 0.666667 0.583333 0.15
249 5 0.333333 0.666667 0.1
250 5 0.416667 0.75 0.1
251 5 0.416667 0.666667 0.15
252 5 0.333333 0.75 0.15
253 5 0.5 0.666667 0.1
254 5 0.583333 0.75 0.1
255 5 0.583333 0.666667 0.15
256 5 0.5 0.75 0.15
257 5 0.666667 0.666667 0.1
260 5 0.666667 0.75 0.15
273 5 0.333333 0.833333 0.1
274 5 0.416667 0.916667 0.1
275 5 0.416667 0.833333 0.15
276 5 0.333333 0.916667 0.15
277 5 0.5 0.833333 0.1
278 5 0.583333 0.916667 0.1
279 5 0.583333 0.833333 0.15
280 5 0.5 0.916667 0.15
281 5 0.666667 0.833333 0.1
284 5 0.666667 0.916667 0.15
293 5 0.333333 0.5 0.2
294 5 0.416667 0.583333 0.2
295 5 0.5 0.5 0.2
296 5 0.583333 0.583333 0.2
297 5 0.666667 0.5 0.2
305 5 0.333333 0.666667 0.2
306 5 0.416667 0.75 0.2
307 5 0.5 0.666667 0.2
308 5 0.583333 0.75 0.2
309 5 0.666667 0.666667 0.2
317 5 0.333333 0.833333 0.2
318 5 0.416667 0.916667 0.2
319 5 0.5 0.833333 0.2
320 5 0.583333 0.916667 0.2
321 5 0.666667 0.833333 0.2
234 5 0.75 0.583333 0.1
235 5 0.75 0.5 0.15
237 5 0.833333 0.5 0.1
238 5 0.916667 0.583333 0.1
239 5 0.916667 0.5 0.15
240 5 0.833333 0.583333 0.15
258 5 0.75 0.75 0.1
259 5 0.75 0.666667 0.15
261 5 0.833333 0.666667 0.1
262 5 0.916667 0.75 0.1
263 5 0.916667 0.666667 0.15
264 5 0.833333 0.75 0.15