LAMMPS (27 Jun 2024)
OMP_NUM_THREADS environment is not set. Defaulting to 1 thread. (src/comm.cpp:98)
  using 1 OpenMP thread(s) per MPI task
Loaded 1 plugins from C:\Users\nashi\AppData\Local\LAMMPS 64-bit 27Jun2024-MSMPI\plugins
units real
atom_style full

read_data silica.data
Reading data file ...
  orthogonal box = (-3.1662119 2.4397298 1.5469185) to (23.75179 18.145848 19.038659)
  2 by 1 by 2 MPI processor grid
  reading atoms ...
  576 atoms
  reading velocities ...
  576 velocities
Finding 1-2 1-3 1-4 neighbors ...
  special bond factors lj:    0        0        0       
  special bond factors coul:  0        0        0       
     0 = max # of 1-2 neighbors
     0 = max # of 1-3 neighbors
     0 = max # of 1-4 neighbors
     1 = max # of special neighbors
  special bonds CPU = 0.000 seconds
  read_data CPU = 0.007 seconds

mass 1 28.0855 # Si
mass 2 15.999 # O

pair_style reaxff NULL safezone 3.0 mincap 150
pair_coeff * * reaxCHOFe.ff Si O
WARNING: Van der Waals parameters for element SI indicate inner wall+shielding, but earlier atoms indicate a different van der Waals method. This may cause division-by-zero errors. Keeping van der Waals setting for earlier atoms. (src/REAXFF/reaxff_ffield.cpp:249)
WARNING: Van der Waals parameters for element AL indicate inner wall+shielding, but earlier atoms indicate a different van der Waals method. This may cause division-by-zero errors. Keeping van der Waals setting for earlier atoms. (src/REAXFF/reaxff_ffield.cpp:249)
WARNING: Changed valency_val to valency_boc for X (src/REAXFF/reaxff_ffield.cpp:294)
fix myqeq all qeq/reaxff 1 0.0 10.0 1.0e-6 reaxff maxiter 400

group grpSi type 1
192 atoms in group grpSi
group grpO type 2
384 atoms in group grpO
variable qSi equal charge(grpSi)/count(grpSi)
variable qO equal charge(grpO)/count(grpO)

thermo 5
thermo_style custom step temp etotal press vol v_qSi v_qO
dump dmp all custom 100 dump.lammpstrj id type q x y z

fix myspec all reaxff/species 5 1 5 species.log element Si O
WARNING: Resetting reneighboring criteria to 'delay 0 every 5 check no' due to fix reaxff/species averaging of bond data (src/REAXFF/fix_reaxff_species.cpp:126)

velocity all create 300.0 3482028
fix mynpt all npt temp 300.0 300.0 100 aniso 1.0 1.0 1000
timestep 0.5

run 5000

CITE-CITE-CITE-CITE-CITE-CITE-CITE-CITE-CITE-CITE-CITE-CITE-CITE

Your simulation uses code contributions which should be cited:

- Type Label Framework: https://doi.org/10.1021/acs.jpcb.3c08419

@Article{Gissinger24,
 author = {Jacob R. Gissinger, Ilia Nikiforov, Yaser Afshar, Brendon Waters, Moon-ki Choi, Daniel S. Karls, Alexander Stukowski, Wonpil Im, Hendrik Heinz, Axel Kohlmeyer, and Ellad B. Tadmor},
 title = {Type Label Framework for Bonded Force Fields in LAMMPS},
 journal = {J. Phys. Chem. B},
 year =    2024,
 volume =  128,
 number =  13,
 pages =   {3282–-3297}
}

- pair reaxff command: doi:10.1016/j.parco.2011.08.005

@Article{Aktulga12,
 author = {H. M. Aktulga and J. C. Fogarty and S. A. Pandit and A. Y. Grama},
 title = {Parallel Reactive Molecular Dynamics: {N}umerical Methods and Algorithmic Techniques},
 journal = {Parallel Computing},
 year =    2012,
 volume =  38,
 number =  {4--5},
 pages =   {245--259}
}

- fix qeq/reaxff command: doi:10.1016/j.parco.2011.08.005

@Article{Aktulga12,
 author = {H. M. Aktulga and J. C. Fogarty and S. A. Pandit and A. Y. Grama},
 title = {Parallel Reactive Molecular Dynamics: {N}umerical Methods and Algorithmic Techniques},
 journal = {Parallel Computing},
 year =    2012,
 volume =  38,
 pages =   {245--259}
}

CITE-CITE-CITE-CITE-CITE-CITE-CITE-CITE-CITE-CITE-CITE-CITE-CITE

Neighbor list info ...
  update: every = 5 steps, delay = 0 steps, check = no
  max neighbors/atom: 2000, page size: 100000
  master list distance cutoff = 12
  ghost atom cutoff = 12
  binsize = 6, bins = 5 3 3
  2 neighbor lists, perpetual/occasional/extra = 2 0 0
  (1) pair reaxff, perpetual
      attributes: half, newton off, ghost
      pair build: half/bin/ghost/newtoff
      stencil: full/ghost/bin/3d
      bin: standard
  (2) fix qeq/reaxff, perpetual, copy from (1)
      attributes: half, newton off
      pair build: copy
      stencil: none
      bin: none
Per MPI rank memory allocation (min/avg/max) = 152.1 | 153.8 | 155.1 Mbytes
   Step          Temp          TotEng         Press          Volume         v_qSi           v_qO     
         0   300           -82752.034      324297.89      7395.1112      1.8719625     -0.93598127   
         5   933.43132     -82803.808      173683.91      7400.4907      1.871266      -0.93563298   
        10   1297.4181     -82806.913      104090.59      7412.9677      1.8705661     -0.93528307   
        15   1272.3048     -82869.237      68468.348      7430.3425      1.8699763     -0.93498815   
        20   1135.5764     -82918.518      90650.819      7451.4522      1.868541      -0.93427048   
        25   1074.4527     -82959.759      89944.615      7476.3085      1.8661718     -0.9330859    
        30   1030.7736     -83027.037      52062.28       7504.5369      1.8635308     -0.93176539   
        35   944.54888     -83075.419      73306.663      7535.2388      1.8592515     -0.92962574   
        40   929.79186     -83122.01       48926.584      7568.6537      1.8529557     -0.92647786   
        45   970.20712     -83165.522      31527.311      7604.1461      1.8444817     -0.92224086   
        50   978.91232     -83194.506      25565.263      7640.8095      1.8348715     -0.91743577   
        55   969.97213     -83221.044      15676.352      7677.9357      1.8250869     -0.91254345   
        60   948.03025     -83244.383      17620.507      7714.9472      1.8155612     -0.9077806    
        65   931.97225     -83269.539      10111.976      7751.6241      1.8059785     -0.90298927   
        70   921.54194     -83290.793     -85.246663      7787.6262      1.7957989     -0.89789945   
        75   880.66699     -83308.136      3300.3175      7822.3752      1.7856498     -0.89282489   
        80   881.74076     -83327.959     -1215.7514      7855.7958      1.7760883     -0.88804414   
        85   856.47126     -83346.838      2528.3632      7887.8138      1.7669872     -0.88349362   
        90   836.31078     -83366.106      48.964333      7918.4378      1.7587468     -0.87937338   
        95   832.71993     -83385.098     -2203.161       7947.6161      1.7515251     -0.87576255   
       100   863.59562     -83404.123     -7199.0441      7975.3054      1.745588      -0.87279401   
       105   896.28889     -83420.399     -14212.486      8001.2518      1.7414453     -0.87072266   
       110   907.50508     -83438.169     -15129.541      8025.1716      1.7389266     -0.86946328   
       115   888.17848     -83456.931     -14701.528      8047.0967      1.7376402     -0.86882012   
       120   876.8302      -83476.165     -13685.734      8067.1561      1.7372006     -0.86860029   
       125   877.34852     -83496.369     -13255.686      8085.4674      1.7377793     -0.86888967   
       130   875.22228     -83517.519     -13364.45       8102.1258      1.7391054     -0.86955272   
       135   878.8787      -83539.369     -16793.998      8117.245       1.7410837     -0.87054185   
       140   867.07595     -83560.569     -17188.351      8130.7907      1.7436925     -0.87184627   
       145   865.79167     -83583.084     -11662.411      8142.8299      1.7474977     -0.87374887   
       150   884.26463     -83607.9       -9233.0568      8153.6986      1.7526679     -0.87633396   
       155   874.78925     -83632.766     -1964.1678      8163.6697      1.7585321     -0.87926606   
       160   852.88009     -83658.139     -3934.4982      8173.0414      1.7650109     -0.88250547   
       165   832.4813      -83683.139     -7666.5518      8181.7667      1.7717115     -0.88585575   
       170   829.69935     -83707.714     -12034.797      8189.7104      1.778106      -0.88905301   
       175   829.50101     -83731.82      -12627.958      8196.7588      1.7840366     -0.89201828   
       180   818.26688     -83755.657     -7132.7979      8202.9599      1.7900586     -0.89502932   
       185   822.034       -83780.475     -6490.1972      8208.5485      1.7964896     -0.89824478   
       190   809.5307      -83805.369      292.53162      8213.6733      1.8025927     -0.90129636   
       195   812.54329     -83829.73      -1095.8276      8218.6485      1.8075025     -0.90375124   
       200   819.56486     -83854.056     -3743.8676      8223.4186      1.8111284     -0.90556421   
       205   807.58374     -83878.237      1477.5985      8227.881       1.8133644     -0.9066822    
       210   808.53705     -83901.727      1827.3383      8232.243       1.8141298     -0.90706491   
       215   807.64543     -83925.593     -388.08872      8236.5409      1.8140809     -0.90704047   
       220   799.14013     -83949.395     -1706.1587      8240.7311      1.8133663     -0.90668313   
       225   788.56945     -83972.915     -5290.2891      8244.7293      1.812225      -0.90611249   
       230   767.52456     -83996.07      -399.53262      8248.3845      1.8105087     -0.90525433   
       235   752.60674     -84017.589      462.69297      8251.9337      1.8087182     -0.90435909   
       240   749.18424     -84038.994     -3358.6487      8255.4625      1.806601      -0.90330051   
       245   762.27917     -84060.381     -5430.2469      8258.8382      1.804493      -0.9022465    
       250   754.83559     -84081.905     -11126.543      8261.8893      1.8030812     -0.90154061   
       255   732.89475     -84103.834     -8735.1564      8264.3558      1.8021122     -0.90105609   
       260   731.42116     -84123.907     -8900.4329      8266.3412      1.8005246     -0.90026232   
       265   748.58483     -84145.287     -9546.5888      8267.8796      1.7985971     -0.89929856   
       270   739.79607     -84165.971     -6592.7222      8268.9509      1.796771      -0.89838548   
       275   720.77909     -84186.63      -3273.2835      8269.6717      1.7949808     -0.89749038   
       280   708.07554     -84206.758     -2923.3306      8270.193       1.7929159     -0.89645794   
       285   695.49896     -84226.019     -9244.8606      8270.4898      1.7909988     -0.89549938   
       290   705.06737     -84246.092     -12787.487      8270.2823      1.7891001     -0.89455007   
       295   703.92269     -84266.582     -17159.014      8269.3905      1.7875633     -0.89378164   
       300   684.41646     -84287.177     -11637.024      8267.635       1.7867497     -0.89337486   
       305   671.2674      -84307.44      -19941.494      8265.1363      1.786649      -0.89332451   
       310   663.66444     -84327.513     -19214.626      8261.664       1.7872524     -0.89362618   
       315   656.87408     -84347.62      -7345.9274      8257.2787      1.7884491     -0.89422457   
       320   646.97        -84368.291     -11127.173      8252.479       1.7904027     -0.89520136   
       325   642.11089     -84388.145     -16584.988      8247.1354      1.7932582     -0.89662911   
       330   631.38644     -84408.126     -14285.322      8240.9658      1.7963746     -0.89818732   
       335   638.8196      -84428.299     -13171.466      8234.0882      1.7992606     -0.89963031   
       340   641.89668     -84448.24      -12512.782      8226.6316      1.802102      -0.90105099   
       345   634.33975     -84468.037     -5084.3811      8218.7491      1.8054948     -0.90274741   
       350   624.90158     -84486.385     -9048.6857      8210.7063      1.8095025     -0.90475124   
       355   621.91512     -84506.286     -250.21524      8202.3878      1.8136279     -0.90681393   
       360   620.30763     -84525.081     -3356.7824      8194.1132      1.8177468     -0.90887339   
       365   615.50511     -84543.832     -5275.1837      8185.8654      1.822053      -0.91102652   
       370   595.71182     -84562.107     -4816.6601      8177.5053      1.8263077     -0.91315384   
       375   576.37168     -84579.584      687.63901      8169.0637      1.829333      -0.9146665    
       380   570.5882      -84594.991     -687.4718       8160.7307      1.8308644     -0.9154322    
       385   589.93493     -84610.383     -2553.1837      8152.52        1.8312714     -0.91563571   
       390   608.08576     -84627.009     -3877.9222      8144.4028      1.8309634     -0.91548172   
       395   605.91225     -84643.814     -7062.8006      8136.2726      1.830331      -0.9151655    
       400   597.10065     -84659.971     -3154.0425      8127.9937      1.8294292     -0.91471458   
       405   591.03193     -84675.976      498.37486      8119.6301      1.8284925     -0.91424623   
       410   587.2414      -84692.135      3434.2852      8111.383       1.8279489     -0.91397447   
       415   581.76798     -84707.827     -1719.1288      8103.4166      1.8278904     -0.91394519   
       420   567.66313     -84723.75      -959.24456      8095.5233      1.8279586     -0.91397932   
       425   565.84159     -84740.296     -6161.371       8087.6418      1.8279267     -0.91396336   
       430   569.48527     -84756.83      -3018.0687      8079.6156      1.8280015     -0.91400076   
       435   577.94367     -84773.223      1373.0201      8071.5667      1.8281831     -0.91409155   
       440   571.14819     -84788.725      366.66181      8063.7134      1.8286504     -0.9143252    
       445   566.67104     -84803.881     -4131.8176      8055.9462      1.8297979     -0.91489896   
       450   553.36516     -84820.099     -3017.6707      8048.0748      1.8313154     -0.9156577    
       455   542.94975     -84835.52      -4433.2007      8040.1378      1.8332431     -0.91662155   
       460   532.85036     -84850.024     -7053.7981      8032.1074      1.8354785     -0.91773923   
       465   530.96186     -84864.541     -6481.3595      8023.916       1.8377983     -0.91889914   
       470   552.22638     -84880.244     -2404.1681      8015.5438      1.8400754     -0.92003771   
       475   553.19596     -84894.958      1168.3201      8007.1737      1.8428202     -0.92141011   
       480   541.32611     -84910.297     -2440.8885      7998.9396      1.8459985     -0.92299926   
       485   531.55882     -84924.475      4128.0962      7990.8076      1.8486748     -0.92433739   
       490   521.68738     -84937.097      8899.6945      7982.9983      1.85041       -0.92520502   
       495   528.88508     -84951.111      7774.8945      7975.6574      1.8510638     -0.92553189   
       500   534.17497     -84963.839      1201.3816      7968.8209      1.8511802     -0.92559008   
       505   517.78821     -84977.098      2832.4972      7962.2539      1.8512347     -0.92561734   
       510   502.91359     -84989.824      7366.6745      7955.97        1.8513001     -0.92565006   
       515   485.77065     -85001.081      5198.0741      7950.1372      1.8511319     -0.92556593   
       520   482.67637     -85012.013      12889.858      7944.7111      1.8508331     -0.92541656   
       525   497.41889     -85023.671      7751.2384      7939.8731      1.8507087     -0.92535436   
       530   502.31306     -85035.893      4708.6542      7935.5006      1.850707      -0.92535351   
       535   492.14119     -85047.818      371.12918      7931.4155      1.8510061     -0.92550303   
       540   480.4455      -85060.418     -1209.2207      7927.4301      1.8514749     -0.92573747   
       545   464.83386     -85071.834      2358.2171      7923.5468      1.8519982     -0.92599908   
       550   465.49103     -85082.92       4938.6731      7919.8888      1.8523236     -0.92616181   
       555   473.60779     -85094.691      2385.4183      7916.5088      1.8528039     -0.92640195   
       560   470.82321     -85106.019      4193.2843      7913.3209      1.8534906     -0.92674528   
       565   479.23012     -85116.9        3141.6126      7910.4127      1.8543831     -0.92719155   
       570   470.88562     -85128.447      14152.753      7907.7873      1.8552596     -0.92762981   
       575   474.21566     -85140.146      3163.7112      7905.7135      1.8567281     -0.92836406   
       580   479.89403     -85151.666      7343.6091      7903.9553      1.8582571     -0.92912853   
       585   475.64853     -85162.715      9418.9019      7902.6394      1.8590556     -0.92952781   
       590   472.13768     -85174.161      822.51744      7901.7542      1.8594441     -0.92972204   
       595   462.10366     -85185.297      927.78422      7900.9646      1.8594838     -0.92974189   
       600   443.50068     -85195.473      4477.5118      7900.2826      1.8591266     -0.9295633    
       605   440.89004     -85205.648     -766.25135      7899.7206      1.8580586     -0.92902928   
       610   435.88693     -85215.49       839.39067      7899.208       1.8564296     -0.92821479   
       615   434.45738     -85225.117      8811.8878      7898.8214      1.8547636     -0.9273818    
       620   441.01908     -85234.563      3184.3332      7898.7597      1.8525851     -0.92629256   
       625   439.80741     -85244.11      -971.27362      7898.8654      1.8500639     -0.92503197   
       630   442.45527     -85253.691     -9766.557       7898.8588      1.8476242     -0.92381212   
       635   442.54205     -85264.021     -6943.7022      7898.4798      1.8455015     -0.92275076   
       640   426.81651     -85273.148     -2476.8547      7897.8608      1.8440832     -0.92204162   
       645   415.73954     -85282.209      1613.7378      7897.099       1.8430578     -0.92152889   
       650   417.31924     -85291.34       2199.386       7896.3498      1.842119      -0.92105951   
       655   415.42128     -85300.317      782.87717      7895.6815      1.8415818     -0.92079088   
       660   417.33276     -85309.316     -6356.6666      7895.0246      1.8419504     -0.92097522   
       665   408.18836     -85318.667     -5722.2154      7894.1697      1.8432359     -0.92161794   
       670   404.45019     -85327.927     -1707.0017      7893.0565      1.845135      -0.92256749   
       675   410.36905     -85337.464     -4794.2172      7891.8271      1.8474943     -0.92374714   
       680   410.74647     -85346.756     -1435.9879      7890.4362      1.8499902     -0.9249951    
       685   411.42574     -85356.075     -600.26347      7888.9147      1.8528719     -0.92643593   
       690   409.36081     -85365.281     -1592.328       7887.3143      1.8559416     -0.92797081   
       695   408.74613     -85375.563     -5059.6231      7885.6194      1.8591789     -0.92958943   
       700   399.19097     -85384.654     -158.62567      7883.8013      1.862723      -0.93136152   
       705   399.73829     -85394.001     -314.3822       7881.9876      1.8664934     -0.93324668   
       710   394.7158      -85403.137     -1226.3002      7880.1582      1.869857      -0.93492848   
       715   399.94696     -85411.458      3180.496       7878.2789      1.8722734     -0.9361367    
       720   404.17344     -85419.93       7635.4121      7876.5338      1.874087      -0.93704351   
       725   401.14869     -85428.19       4983.0192      7875.1366      1.8752954     -0.93764772   
       730   396.52037     -85436.634      2831.8852      7874.0112      1.8756124     -0.9378062    
       735   387.95989     -85444.292      5408.8871      7873.0715      1.8753007     -0.93765034   
       740   386.57438     -85450.932      10286.048      7872.3798      1.8741563     -0.93707815   
       745   390.56297     -85458.999      12003.025      7872.0829      1.8722912     -0.93614562   
       750   395.90949     -85467.298      8504.5473      7872.3618      1.8701285     -0.93506426   
       755   392.37687     -85473.546     -1914.1245      7873.0083      1.8682813     -0.93414064   
       760   390.3714      -85480.8        1104.8217      7873.5962      1.8661144     -0.93305718   
       765   385.91422     -85488.042     -1894.82        7874.2044      1.8637643     -0.93188217   
       770   386.10568     -85494.911     -5533.6812      7874.7117      1.8619399     -0.93096997   
       775   380.22323     -85501.909     -923.65326      7874.9781      1.8605771     -0.93028854   
       780   383.77846     -85509.428      3339.5151      7875.1552      1.8594328     -0.92971641   
       785   381.36917     -85516.651     -4563.1782      7875.4325      1.8590066     -0.92950331   
       790   383.83255     -85523.88      -6941.2604      7875.5565      1.858857      -0.92942849   
       795   378.93122     -85530.738     -3088.2332      7875.4031      1.8591281     -0.92956405   
       800   368.83873     -85538.164     -1506.0889      7875.0717      1.8600098     -0.93000488   
       805   363.51933     -85545.778     -1252.5708      7874.6147      1.8611384     -0.93056919   
       810   353.94371     -85552.606      1052.4347      7874.1049      1.8625523     -0.93127614   
       815   358.89593     -85559.731      1654.4166      7873.6176      1.8641299     -0.93206497   
       820   361.09673     -85566.822      1347.781       7873.169       1.8657407     -0.93287036   
       825   362.80979     -85573.654     -3580.4698      7872.7468      1.8675686     -0.93378431   
       830   364.93296     -85581.383     -8134.3149      7872.1461      1.8700868     -0.9350434    
       835   351.04866     -85588.257      273.34449      7871.2309      1.872972      -0.93648602   
       840   339.55155     -85595.086     -656.89417      7870.2773      1.8757435     -0.93787173   
       845   334.518       -85601.817      890.83675      7869.2787      1.8778569     -0.93892847   
       850   337.32967     -85608.244      1340.1528      7868.2991      1.8795738     -0.93978688   
       855   342.07343     -85614.42       1570.4546      7867.4213      1.8808263     -0.94041317   
       860   345.83231     -85620.477      7428.9288      7866.7073      1.8816438     -0.94082192   
       865   344.18565     -85626.674      3487.0029      7866.3407      1.8822969     -0.94114847   
       870   337.00637     -85632.296     -741.79347      7866.1809      1.8822993     -0.94114966   
       875   330.0881      -85637.553      3481.7124      7866.075       1.881415      -0.9407075    
       880   328.87856     -85642.209      5104.9632      7866.1602      1.8799296     -0.93996481   
       885   335.19988     -85647.177      8198.1399      7866.4777      1.8781097     -0.93905487   
       890   338.30031     -85652.596      3283.1415      7867.1139      1.8761495     -0.93807473   
       895   333.81245     -85657.535     -2137.4147      7867.8947      1.8741556     -0.9370778    
       900   325.11089     -85662.175     -3194.891       7868.5851      1.8720259     -0.93601295   
       905   328.90162     -85666.555     -3222.106       7869.128       1.8696839     -0.93484196   
       910   326.79285     -85671.338     -1348.5802      7869.5191      1.8676584     -0.9338292    
       915   320.26543     -85675.734     -1886.3214      7869.8312      1.8662558     -0.93312788   
       920   316.84323     -85680.903     -1182.0304      7870.0689      1.8654978     -0.93274888   
       925   316.47201     -85685.117     -6582.1642      7870.2198      1.8649278     -0.9324639    
       930   313.84263     -85689.685      1614.7195      7870.1753      1.8644139     -0.93220696   
       935   317.09513     -85693.968     -5955.1431      7870.1259      1.8640493     -0.93202465   
       940   317.99382     -85698.746     -7258.4304      7869.8207      1.8639657     -0.93198283   
       945   314.76541     -85703.179     -9627.6886      7869.1174      1.8640824     -0.93204119   
       950   315.94977     -85707.703     -1596.7937      7867.9653      1.8646038     -0.9323019    
       955   324.02912     -85712.871     -5246.8431      7866.6234      1.8651947     -0.93259734   
       960   318.91596     -85717.416      3669.1179      7865.1007      1.8659386     -0.93296928   
       965   313.61061     -85722.228     -394.45244      7863.6382      1.8666289     -0.93331445   
       970   301.37735     -85727.071     -688.06944      7862.1687      1.8675373     -0.93376863   
       975   292.6779      -85731.344     -4726.7835      7860.6207      1.8683826     -0.9341913    
       980   293.82476     -85735.635      325.71088      7858.9012      1.8688384     -0.93441919   
       985   297.34526     -85739.46      -2212.1874      7857.1678      1.8689128     -0.93445642   
       990   308.00601     -85743.456     -5776.5611      7855.3244      1.8691792     -0.93458961   
       995   300.74968     -85747.607     -1938.7714      7853.2471      1.8696952     -0.93484758   
      1000   300.03388     -85751.922      1669.7289      7851.058       1.8702648     -0.93513241   
      1005   299.83049     -85755.585     -4178.6223      7848.8639      1.8707361     -0.93536805   
      1010   302.79913     -85759.495     -5371.3792      7846.5251      1.8710741     -0.93553707   
      1015   303.04205     -85763.265     -4582.0338      7843.9797      1.8713008     -0.93565039   
      1020   303.54042     -85767.28      -6066.0814      7841.2161      1.8715368     -0.9357684    
      1025   292.59412     -85770.975     -451.89855      7838.2207      1.8717648     -0.9358824    
      1030   293.43271     -85774.551     -1895.5878      7835.1813      1.8716647     -0.93583236   
      1035   292.24243     -85777.194      16.07915       7832.1061      1.871356      -0.93567798   
      1040   295.5451      -85780.711     -2558.4611      7829.0258      1.8709985     -0.93549927   
      1045   303.3481      -85784.656     -4899.9841      7825.8762      1.8706738     -0.9353369    
      1050   298.60703     -85787.427     -1255.5884      7822.6252      1.8703703     -0.93518515   
      1055   300.67071     -85791.005     -7989.2432      7819.2724      1.8702293     -0.93511465   
      1060   294.97534     -85794.717      1501.5023      7815.6719      1.8704776     -0.93523882   
      1065   286.36209     -85797.625      3113.2953      7812.1383      1.871109      -0.93555451   
      1070   279.29478     -85800.497      5672.8143      7808.7566      1.8719246     -0.93596228   
      1075   280.66331     -85803.288      4301.7582      7805.6092      1.8727726     -0.93638631   
      1080   285.61056     -85806.117     -2233.7414      7802.6519      1.8737056     -0.93685278   
      1085   289.11004     -85808.577      1632.1666      7799.6794      1.8744763     -0.93723816   
      1090   295.00942     -85811.595     -1254.0845      7796.7255      1.8747997     -0.93739986   
      1095   296.17057     -85814.272      4632.3098      7793.7795      1.8750789     -0.93753944   
      1100   302.23292     -85817.135     -878.92211      7790.9856      1.8754406     -0.93772031   
      1105   301.30636     -85819.815      8492.2597      7788.2439      1.8755085     -0.93775425   
      1110   304.15481     -85822.64       3499.1117      7785.8001      1.8758456     -0.93792282   
      1115   299.92306     -85825.449      745.99363      7783.5692      1.8766366     -0.9383183    
      1120   295.44721     -85828.426     -882.94044      7781.4053      1.8779411     -0.93897057   
      1125   288.79984     -85831.527      3786.0936      7779.2329      1.8793256     -0.93966278   
      1130   284.05342     -85834.204      11755.53       7777.2773      1.8807177     -0.94035885   
      1135   292.23344     -85837.253      3569.8296      7775.785       1.8823091     -0.94115454   
      1140   286.35192     -85839.883      3874.6288      7774.544       1.8840625     -0.94203124   
      1145   282.18664     -85842.955      3346.24        7773.5094      1.8859014     -0.94295068   
      1150   278.85399     -85845.311      3782.3748      7772.6459      1.8874762     -0.94373808   
      1155   283.91234     -85848.101      5409.5099      7771.9694      1.8887816     -0.94439079   
      1160   285.92962     -85850.794      12368.09       7771.6334      1.8896625     -0.94483126   
      1165   288.69268     -85852.92       2666.5063      7771.8414      1.8903915     -0.94519575   
      1170   278.65854     -85854.926      6109.1435      7772.249       1.890633      -0.94531652   
      1175   278.45134     -85857.028     -1635.6562      7772.8182      1.8903537     -0.94517683   
      1180   277.62186     -85858.861      10895.674      7773.4108      1.8895348     -0.94476741   
      1185   281.18933     -85860.485      5768.2763      7774.3947      1.8883458     -0.94417288   
      1190   278.0426      -85862.426      7439.6743      7775.661       1.886938      -0.943469     
      1195   274.4621      -85863.89       7587.7901      7777.2168      1.8854223     -0.94271117   
      1200   268.56799     -85865.303      5931.8104      7779.09        1.8839216     -0.94196078   
      1205   265.70709     -85866.931      3953.3439      7781.196       1.8818452     -0.9409226    
      1210   266.50849     -85867.914      3199.9042      7783.4764      1.8792188     -0.9396094    
      1215   264.78817     -85868.858      1846.9846      7785.8704      1.8763951     -0.93819756   
      1220   263.6499      -85869.818      2743.7809      7788.3476      1.8734357     -0.93671786   
      1225   266.84208     -85870.687     -2879.3573      7790.9266      1.8706036     -0.9353018    
      1230   268.93817     -85871.322     -5378.2603      7793.3657      1.8682059     -0.93410293   
      1235   269.82816     -85871.164     -8134.5248      7795.5191      1.8661299     -0.93306497   
      1240   270.75709     -85872.155     -3331.7447      7797.2731      1.8644223     -0.93221114   
      1245   265.10202     -85873.613      1333.6097      7798.9063      1.8633548     -0.93167741   
      1250   263.3638      -85874.023     -1847.6703      7800.6134      1.8627456     -0.93137279   
      1255   266.93156     -85874.908     -4486.5475      7802.1941      1.8624593     -0.93122965   
      1260   269.75882     -85875.709     -7757.1958      7803.5464      1.8624598     -0.9312299    
      1265   263.78038     -85876.557     -5073.6454      7804.5965      1.8628129     -0.93140647   
      1270   265.55177     -85877.422     -5304.292       7805.406       1.8634158     -0.93170789   
      1275   265.70927     -85878.21      -2208.1138      7805.9635      1.8640823     -0.93204115   
      1280   267.76217     -85878.792      4839.8807      7806.3956      1.8645376     -0.93226882   
      1285   271.04417     -85879.613     -1508.4047      7806.9592      1.8648095     -0.93240476   
      1290   271.97182     -85880.256     -5071.5953      7807.472       1.8648945     -0.93244724   
      1295   270.87036     -85880.711     -1890.6929      7807.748       1.8650017     -0.93250087   
      1300   277.21495     -85881.556      5213.0139      7807.9132      1.8650856     -0.9325428    
      1305   279.07165     -85882.088     -2963.3784      7808.1898      1.8652644     -0.93263221   
      1310   274.05298     -85882.542     -1872.5116      7808.3962      1.865617      -0.93280851   
      1315   266.83142     -85882.703     -1575.8734      7808.471       1.865858      -0.93292902   
      1320   269.18258     -85882.991     -395.01158      7808.4514      1.8659157     -0.93295784   
      1325   273.72975     -85883.595      3747.2768      7808.4584      1.8661833     -0.93309167   
      1330   272.81116     -85883.405      1468.6789      7808.6305      1.8666446     -0.93332229   
      1335   279.73945     -85884.068     -4700.5017      7808.8486      1.8673391     -0.93366956   
      1340   275.40059     -85884.343     -3571.5308      7808.9098      1.8682668     -0.93413342   
      1345   271.5513      -85884.259     -3601.4694      7808.856       1.8694221     -0.93471105   
      1350   275.66364     -85884.754      1193.1755      7808.6918      1.8707438     -0.93537188   
      1355   270.45415     -85884.771      2184.4721      7808.5981      1.8724977     -0.93624885   
      1360   270.20609     -85885.251     -503.37798      7808.5771      1.8742535     -0.93712674   
      1365   266.48334     -85885.435      1256.9996      7808.5223      1.8755644     -0.93778222   
      1370   265.80283     -85885.396      4872.8296      7808.5384      1.8766952     -0.93834761   
      1375   269.75983     -85885.273      4188.4245      7808.7737      1.8774507     -0.93872535   
      1380   266.52677     -85884.668      1123.9585      7809.1995      1.8779041     -0.93895205   
      1385   268.83119     -85884.382     -1365.8116      7809.6731      1.8778856     -0.93894282   
      1390   272.21448     -85883.667      2958.0344      7810.1246      1.8775362     -0.93876808   
      1395   273.43595     -85882.76       6697.4969      7810.6836      1.8768804     -0.9384402    
      1400   281.7761      -85882.56       1348.5186      7811.5039      1.8763697     -0.93818484   
      1405   285.43686     -85881.446     -4316.3499      7812.3985      1.8761699     -0.93808493   
      1410   276.95914     -85880.556      2381.6608      7813.1367      1.8761379     -0.93806894   
      1415   264.75485     -85879.88       5035.6863      7813.9593      1.8765816     -0.93829079   
      1420   263.1407      -85879.563     -991.74268      7814.942       1.8770514     -0.93852571   
      1425   261.61439     -85878.613      1297.113       7815.9372      1.8773727     -0.93868634   
      1430   272.01527     -85877.839     -351.5734       7816.9803      1.877608      -0.93880401   
      1435   279.1219      -85876.904      6920.6859      7818.0462      1.877739      -0.9388695    
      1440   282.64607     -85876.092     -128.3962       7819.3362      1.8782119     -0.93910593   
      1445   278.86465     -85874.795     -2266.4375      7820.6265      1.8788259     -0.93941297   
      1450   274.08756     -85874.113      9868.438       7821.8659      1.8789004     -0.93945021   
      1455   271.89012     -85872.483      3991.3553      7823.4512      1.8784455     -0.93922276   
      1460   275.93739     -85871.344     -298.29093      7825.2299      1.8777218     -0.9388609    
      1465   277.14555     -85869.886      853.53157      7827.015       1.87664       -0.93831999   
      1470   274.95503     -85868.691      6400.6262      7828.853       1.8756402     -0.9378201    
      1475   278.17225     -85866.851     -3425.26        7830.9077      1.8746961     -0.93734807   
      1480   275.19545     -85865.134     -3700.2872      7832.859       1.873894      -0.93694698   
      1485   272.40389     -85863.109      1755.2393      7834.6464      1.8730079     -0.93650394   
      1490   274.76747     -85861.507     -774.02947      7836.4142      1.8717291     -0.93586456   
      1495   279.13592     -85859.659     -3691.4427      7838.1271      1.8703576     -0.93517879   
      1500   280.58019     -85857.616     -1521.7446      7839.6903      1.8688831     -0.93444156   
      1505   284.8498      -85855.797     -3299.2684      7841.1773      1.8673805     -0.93369027   
      1510   278.7134      -85853.166     -3905.4079      7842.563       1.8658552     -0.9329276    
      1515   269.36826     -85850.708     -1351.1915      7843.76        1.8646624     -0.93233119   
      1520   267.59101     -85849.288     -3493.4848      7844.776       1.8636321     -0.93181604   
      1525   266.07077     -85847.07       1132.0141      7845.6599      1.8629548     -0.93147738   
      1530   275.37999     -85845.332     -1863.1842      7846.5653      1.8627548     -0.93137741   
      1535   275.62941     -85843.068     -4026.5034      7847.3551      1.8631074     -0.9315537    
      1540   279.73817     -85841.542     -916.11515      7847.9515      1.8639764     -0.93198821   
      1545   277.70178     -85840.085     -1134.0151      7848.4756      1.8655182     -0.93275912   
      1550   271.02605     -85838.167      2212.3812      7848.9959      1.8672641     -0.93363207   
      1555   275.5465      -85836.436      2794.9129      7849.5719      1.8689376     -0.93446882   
      1560   291.94512     -85834.961      944.55094      7850.2144      1.8704865     -0.93524325   
      1565   298.98696     -85833.22      -2605.6728      7850.8817      1.8722053     -0.93610264   
      1570   291.15778     -85831.311     -385.87119      7851.4701      1.8739846     -0.9369923    
      1575   280.14614     -85829.519     -310.25352      7852.0019      1.8755534     -0.9377767    
      1580   278.95426     -85827.609     -1016.3302      7852.5055      1.8764765     -0.93823826   
      1585   288.02352     -85825.526     -2676.8053      7852.9636      1.87669       -0.93834498   
      1590   297.4398      -85823.186      1357.0465      7853.3403      1.8765813     -0.93829064   
      1595   292.83002     -85820.813      258.02953      7853.7193      1.8767367     -0.93836836   
      1600   281.60854     -85818.696      29.929221      7854.0799      1.8769974     -0.93849868   
      1605   277.69463     -85816.6       -98.991574      7854.4436      1.8771489     -0.93857444   
      1610   283.31606     -85814.206     -2943.4713      7854.7968      1.8768906     -0.93844529   
      1615   291.0735      -85811.578     -1975.178       7855.0136      1.8763434     -0.93817171   
      1620   292.73042     -85809.528     -2131.6093      7855.1126      1.8759097     -0.93795485   
      1625   284.59696     -85806.807     -96.173026      7855.1583      1.8757538     -0.93787692   
      1630   285.4699      -85804.492     -412.87363      7855.1722      1.8753582     -0.93767912   
      1635   284.8094      -85801.68       2931.9107      7855.1985      1.8743036     -0.93715179   
      1640   296.20034     -85798.919     -2064.6504      7855.3225      1.8728169     -0.93640843   
      1645   302.32326     -85795.931     -712.83522      7855.362       1.8711568     -0.93557838   
      1650   303.96218     -85793.197     -563.16066      7855.35        1.8693182     -0.93465908   
      1655   296.48855     -85790.505     -2328.8019      7855.3251      1.867481      -0.93374052   
      1660   284.41769     -85787.682      148.69514      7855.3044      1.8656677     -0.93283383   
      1665   282.88574     -85784.591     -4206.6898      7855.2783      1.8638537     -0.93192685   
      1670   290.41878     -85781.974     -2387.2814      7855.0562      1.8620464     -0.93102319   
      1675   295.62899     -85779.4       -3770.1037      7854.7077      1.8607933     -0.93039667   
      1680   296.03578     -85776.503     -6794.2545      7854.1596      1.8604842     -0.93024208   
      1685   293.2901      -85774.36      -7897.8182      7853.2776      1.8605936     -0.93029682   
      1690   291.33709     -85772.045     -7802.1821      7852.0378      1.8609444     -0.9304722    
      1695   295.26161     -85769.854     -4244.3886      7850.4433      1.8613992     -0.93069958   
      1700   301.30109     -85767.876     -169.04297      7848.6888      1.8620046     -0.93100232   
      1705   303.77416     -85765.424     -2412.6123      7846.9392      1.8630619     -0.93153095   
      1710   297.59584     -85763.052     -362.54303      7845.0586      1.864145      -0.9320725    
      1715   305.06061     -85761.245     -7266.6125      7843.0354      1.864965      -0.93248251   
      1720   302.36762     -85759.228      647.98563      7840.7384      1.865734      -0.932867     
      1725   305.0201      -85756.97      -859.65754      7838.4104      1.8668386     -0.93341929   
      1730   298.92948     -85755.086      4215.7846      7836.109       1.8678921     -0.93394604   
      1735   294.20013     -85752.47       3448.5548      7833.9735      1.8687413     -0.93437066   
      1740   304.52669     -85750.52       3291.1221      7831.9461      1.8698701     -0.93493504   
      1745   314.73236     -85749.094      2712.3081      7830.0396      1.8712249     -0.93561246   
      1750   319.81746     -85746.515     -3667.7685      7828.2591      1.8728326     -0.93641628   
      1755   321.42356     -85744.664      331.31923      7826.3641      1.8743501     -0.93717506   
      1760   322.26123     -85742.548      3061.1132      7824.471       1.8755245     -0.93776223   
      1765   316.47777     -85740.45       8506.8855      7822.763       1.8760213     -0.93801064   
      1770   321.01965     -85738.037      6093.3599      7821.41        1.8758928     -0.9379464    
      1775   326.6785      -85735.704      6206.5361      7820.348       1.8754728     -0.93773641   
      1780   324.91514     -85733.504      1396.2376      7819.5701      1.8746805     -0.93734026   
      1785   318.67526     -85731.511      4004.6676      7818.9617      1.8737559     -0.93687793   
      1790   303.91449     -85728.884     -267.33402      7818.5249      1.8726688     -0.93633441   
      1795   305.46334     -85726.753     -1060.5274      7818.0934      1.8712863     -0.93564317   
      1800   312.39777     -85724.534      1054.9935      7817.5958      1.8695088     -0.93475438   
      1805   317.72618     -85722.293      4221.527       7817.1685      1.8675392     -0.93376959   
      1810   320.59466     -85719.933      815.939        7816.9414      1.8657916     -0.93289579   
      1815   327.98353     -85717.634     -3519.684       7816.7379      1.864517      -0.93225852   
      1820   322.60314     -85715.93      -730.22909      7816.4121      1.8634472     -0.93172359   
      1825   317.22751     -85714.009      45.912624      7816.0361      1.8628748     -0.9314374    
      1830   313.58366     -85712.354     -4156.6262      7815.5992      1.8630242     -0.93151211   
      1835   312.06399     -85711.105     -2695.1642      7814.9868      1.8634523     -0.93172615   
      1840   312.94298     -85709.852     -2117.1299      7814.2063      1.8638477     -0.93192386   
      1845   319.61477     -85708.595     -595.49126      7813.3374      1.8642809     -0.93214047   
      1850   321.74247     -85707.379      3666.5283      7812.5085      1.8651659     -0.93258294   
      1855   320.36166     -85706.228     -2459.4685      7811.8356      1.8666729     -0.93333647   
      1860   314.22282     -85705.226     -1080.8297      7811.1244      1.8685877     -0.93429384   
      1865   310.02178     -85704.571      1305.0592      7810.357       1.8706198     -0.9353099    
      1870   307.66849     -85703.838     -610.08489      7809.645       1.8727059     -0.93635293   
      1875   309.95713     -85702.806      1942.4034      7808.9732      1.8742093     -0.93710464   
      1880   313.63667     -85702.243      4522.6952      7808.4111      1.8752076     -0.93760381   
      1885   322.2718      -85701.268      6012.7189      7808.1215      1.8756256     -0.93781278   
      1890   320.63442     -85700.098      4275.1488      7808.2162      1.8758492     -0.93792461   
      1895   310.74903     -85698.768      1221.4795      7808.6239      1.8757364     -0.93786818   
      1900   302.36963     -85697.118      2292.6498      7809.183       1.8749612     -0.93748061   
      1905   307.2799      -85695.594      1153.0499      7809.8339      1.8737661     -0.93688304   
      1910   317.42207     -85694.665      2886.8231      7810.4837      1.8721798     -0.93608991   
      1915   316.1557      -85693.68       6993.5472      7811.3217      1.8706193     -0.93530964   
      1920   310.88634     -85691.911      791.65151      7812.4929      1.8695363     -0.93476815   
      1925   312.97872     -85690.714      592.02194      7813.6969      1.8685665     -0.93428327   
      1930   321.19411     -85689.828      1910.0915      7814.9234      1.8675589     -0.93377947   
      1935   337.13863     -85688.609      5189.297       7816.2139      1.8666037     -0.93330185   
      1940   345.92427     -85687.874     -1203.2739      7817.6681      1.8659401     -0.93297003   
      1945   343.99074     -85686.584      762.05222      7819.1535      1.8653426     -0.93267132   
      1950   340.1982      -85685.542     -726.25248      7820.5828      1.864493      -0.9322465    
      1955   332.85786     -85685.1        2918.2917      7821.9517      1.8636317     -0.93181584   
      1960   330.04838     -85684.633      2047.4781      7823.4254      1.8627807     -0.93139035   
      1965   334.45611     -85683.828     -1171.7617      7824.9793      1.8616561     -0.93082805   
      1970   335.15235     -85683.144     -3638.7422      7826.463       1.8607044     -0.9303522    
      1975   335.57926     -85682.637     -6153.3824      7827.7652      1.8602467     -0.93012337   
      1980   333.46853     -85682.13       240.49515      7828.8067      1.8597383     -0.92986914   
      1985   338.71785     -85682.199     -7009.8684      7829.752       1.8593995     -0.92969975   
      1990   335.74155     -85682.125     -6493.3953      7830.409       1.8596394     -0.92981971   
      1995   328.21256     -85682.666     -743.20136      7830.8094      1.8605018     -0.93025088   
      2000   319.78419     -85683.088     -434.18172      7831.1681      1.8616034     -0.93080168   
      2005   319.61969     -85683.434     -3821.1395      7831.5048      1.8624357     -0.93121783   
      2010   325.34554     -85683.915     -4640.3205      7831.7062      1.8628636     -0.93143182   
      2015   330.93902     -85683.92      -3579.0428      7831.7134      1.8631257     -0.93156286   
      2020   329.77785     -85684.848      240.08586      7831.5045      1.8632755     -0.93163773   
      2025   324.55754     -85684.929      2630.9159      7831.2615      1.8629359     -0.93146797   
      2030   327.74873     -85685.32      -5373.2439      7831.1212      1.862177      -0.9310885    
      2035   323.12018     -85685.538     -3965.8304      7830.794       1.8612937     -0.93064686   
      2040   321.49149     -85685.814     -860.27092      7830.2511      1.860656      -0.930328     
      2045   317.58863     -85686.762     -290.19078      7829.6106      1.860493      -0.93024651   
      2050   315.40628     -85687.89      -3987.9152      7828.9153      1.860842      -0.93042098   
      2055   314.2695      -85688.495      1245.3702      7828.0612      1.8612817     -0.93064083   
      2060   322.09122     -85689.953     -3168.2747      7827.1832      1.8621127     -0.93105636   
      2065   325.72637     -85690.73      -6704.9111      7826.1906      1.8631375     -0.93156874   
      2070   321.7959      -85692.025     -4804.0759      7824.9551      1.8648109     -0.93240545   
      2075   318.56219     -85693.449      6056.1818      7823.5592      1.866996      -0.93349798   
      2080   318.53517     -85695.384     -386.50042      7822.3061      1.8694941     -0.93474705   
      2085   316.58647     -85697.151     -2645.389       7821.0811      1.872498      -0.93624902   
      2090   314.47555     -85698.935      684.47257      7819.8008      1.8757115     -0.93785575   
      2095   311.49342     -85700.831      696.97114      7818.5206      1.8788315     -0.93941577   
      2100   313.70355     -85702.941      1202.2607      7817.2529      1.8817936     -0.9408968    
      2105   309.44701     -85704.548      3519.7643      7816.0672      1.8844764     -0.94223819   
      2110   306.97023     -85706.159      5872.4786      7815.0686      1.8867058     -0.94335291   
      2115   314.75405     -85707.656      5797.8571      7814.3141      1.888284      -0.94414202   
      2120   317.12442     -85709.04       11504.85       7813.8334      1.8892939     -0.94464695   
      2125   322.23247     -85710.595      4412.4011      7813.8061      1.8896498     -0.94482492   
      2130   320.16098     -85711.694     -218.59599      7814.0052      1.8895095     -0.94475477   
      2135   317.49992     -85713.257      7701.8614      7814.2779      1.8886586     -0.94432932   
      2140   316.9744      -85713.984      6688.7548      7814.885       1.8870659     -0.94353296   
      2145   321.52534     -85714.947      7829.9887      7815.8369      1.884791      -0.94239548   
      2150   326.56223     -85715.947      12453.844      7817.2069      1.8821238     -0.94106189   
      2155   327.61001     -85716.938      298.54197      7818.9891      1.8791253     -0.93956265   
      2160   324.81576     -85717.488      1534.2161      7820.7823      1.8758034     -0.9379017    
      2165   320.56362     -85718.608      6580.8475      7822.6205      1.8724091     -0.93620453   
      2170   319.66398     -85719.766      697.78805      7824.6156      1.8689863     -0.93449316   
      2175   314.67037     -85720.402     -3327.8407      7826.586       1.8659956     -0.93299778   
      2180   312.64935     -85721.843     -1792.0717      7828.4499      1.8636112     -0.9318056    
      2185   308.41013     -85722.701     -2276.2244      7830.222       1.8618226     -0.93091128   
      2190   311.32249     -85724.392     -2778.4169      7831.8287      1.8606848     -0.93034238   
      2195   307.72632     -85726.216     -5473.6535      7833.2666      1.8602302     -0.93011509   
      2200   307.29897     -85727.576     -9513.2965      7834.426       1.8603293     -0.93016463   
      2205   304.83721     -85729.596     -7046.5997      7835.1408      1.8610213     -0.93051066   
      2210   302.38041     -85731.554     -2255.3722      7835.5314      1.8617545     -0.93087727   
      2215   303.56822     -85733.717     -964.9594       7835.8119      1.8623308     -0.93116541   
      2220   302.46015     -85735.607     -6216.7172      7836.0226      1.8627514     -0.9313757    
      2225   307.39944     -85737.354     -6185.8281      7835.966       1.8629633     -0.93148166   
      2230   308.26304     -85739.227     -6238.8978      7835.5742      1.8632856     -0.93164282   
      2235   308.23528     -85741.77      -599.54029      7834.91        1.8638769     -0.93193844   
      2240   299.96634     -85743.421     -475.99673      7834.1817      1.8644988     -0.93224941   
      2245   296.41097     -85745.89      -3699.348       7833.4155      1.8651048     -0.93255239   
      2250   302.34804     -85747.64      -4970.423       7832.51        1.8656649     -0.93283244   
      2255   304.26684     -85749.669     -4368.6104      7831.37        1.8662382     -0.93311912   
      2260   309.85271     -85751.925     -4638.9795      7829.9728      1.8670701     -0.93353505   
      2265   301.99442     -85753.985      2751.6578      7828.4081      1.8680241     -0.93401206   
      2270   297.85147     -85756.07      -820.12979      7826.9162      1.8686886     -0.93434431   
      2275   301.8875      -85758.214     -3872.0841      7825.3591      1.8692821     -0.93464107   
      2280   309.11432     -85760.756      5462.6137      7823.6586      1.86997       -0.93498502   
      2285   316.13458     -85762.521      4461.3804      7822.1406      1.870487      -0.93524352   
      2290   308.10397     -85764.163     -2882.88        7820.8289      1.8713386     -0.93566929   
      2295   300.04293     -85766.603      1096.9778      7819.432       1.8722258     -0.9361129    
      2300   301.95587     -85768.892     -1811.2681      7818.0382      1.8728828     -0.93644138   
      2305   304.6113      -85770.805     -2097.2727      7816.6022      1.8732275     -0.93661375   
      2310   313.57192     -85772.878      1966.804       7815.1001      1.8734356     -0.93671782   
      2315   310.80099     -85774.52       839.82405      7813.6995      1.8737653     -0.93688264   
      2320   301.37698     -85776.363      655.93807      7812.362       1.8740572     -0.9370286    
      2325   295.09212     -85778.138      2747.7904      7811.0692      1.8740625     -0.93703123   
      2330   298.49464     -85779.642     -29.355141      7809.8819      1.8735643     -0.93678217   
      2335   306.87344     -85781.628      5080.289       7808.7687      1.8728176     -0.93640878   
      2340   309.46347     -85783.567      4124.7247      7807.8863      1.8721657     -0.93608287   
      2345   302.97359     -85784.85      -545.20507      7807.2106      1.8716478     -0.93582391   
      2350   289.11295     -85786.562      4271.7743      7806.5385      1.8711734     -0.9355867    
      2355   288.17803     -85788.098     -114.99795      7805.9424      1.87062       -0.93531001   
      2360   287.24832     -85789.656      2704.6908      7805.3638      1.8701058     -0.9350529    
      2365   290.66615     -85791.811      7119.9062      7804.8884      1.869603      -0.93480149   
      2370   290.53692     -85793.208     -588.67994      7804.638       1.8693672     -0.93468362   
      2375   288.77679     -85794.385      1231.2127      7804.3981      1.8693187     -0.93465934   
      2380   294.59982     -85796.378     -4549.6227      7804.1476      1.8694741     -0.93473703   
      2385   293.12488     -85797.704      4610.1498      7803.7832      1.8695782     -0.93478911   
      2390   297.11983     -85799.505      7892.3916      7803.6127      1.8698065     -0.93490326   
      2395   290.56576     -85800.964      8188.1523      7803.8329      1.8701084     -0.9350542    
      2400   286.79623     -85802.832     -2581.4225      7804.3748      1.8705917     -0.93529587   
      2405   280.2808      -85804.317     -1656.5572      7804.839       1.8708685     -0.93543423   
      2410   283.83182     -85805.905      5558.655       7805.2486      1.870978      -0.93548901   
      2415   285.75081     -85807.255      2401.0648      7805.8225      1.8705218     -0.9352609    
      2420   289.91046     -85808.615     -988.80124      7806.494       1.8699837     -0.93499184   
      2425   292.83655     -85810.428     -1084.6745      7807.1494      1.8698294     -0.9349147    
      2430   296.01436     -85811.594     -5012.1741      7807.7463      1.8698725     -0.93493627   
      2435   290.88632     -85812.836      3526.5052      7808.191       1.8699773     -0.93498863   
      2440   289.44932     -85814.095      5479.4636      7808.747       1.8703219     -0.93516093   
      2445   283.40274     -85815.895     -1585.1359      7809.4699      1.8706043     -0.93530217   
      2450   284.05319     -85817.113     -3964.0668      7810.1511      1.8708215     -0.93541074   
      2455   286.76266     -85818.378     -3714.0842      7810.7122      1.8711993     -0.93559965   
      2460   290.47649     -85819.416      950.04229      7811.1346      1.8714849     -0.93574246   
      2465   290.44669     -85821.013      3594.9679      7811.587       1.8721795     -0.93608974   
      2470   285.8322      -85822.213      1307.1183      7812.2092      1.8730916     -0.93654579   
      2475   291.29061     -85823.5       -1198.3876      7812.8748      1.8739455     -0.93697277   
      2480   290.17874     -85825.105      3867.2316      7813.4721      1.8745363     -0.93726813   
      2485   292.38498     -85825.961     -3473.4569      7814.1158      1.8746038     -0.93730189   
      2490   292.45519     -85826.944     -7322.3078      7814.5685      1.8742899     -0.93714493   
      2495   293.68356     -85828.077      5405.2652      7814.7258      1.8737547     -0.93687733   
      2500   292.37189     -85829.061      6108.5546      7815.0803      1.8733452     -0.93667261   
      2505   290.67596     -85830.163     -1556.5411      7815.6985      1.8730883     -0.93654416   
      2510   286.5657      -85831.038     -424.65412      7816.2848      1.8728681     -0.93643406   
      2515   286.97968     -85831.882     -2604.2693      7816.8241      1.8726165     -0.93630826   
      2520   290.55814     -85833.054     -624.96816      7817.2382      1.8720167     -0.93600833   
      2525   291.8993      -85833.824      1261.8695      7817.6439      1.8716279     -0.93581393   
      2530   294.96102     -85834.675     -7285.3062      7818.0638      1.8711175     -0.93555874   
      2535   293.40731     -85835.988      1388.5985      7818.2207      1.8705893     -0.93529463   
      2540   288.10648     -85836.567     -1350.5341      7818.4001      1.8704452     -0.93522262   
      2545   279.26162     -85837.075     -1749.8738      7818.5629      1.8705788     -0.93528941   
      2550   274.9242      -85837.936      3885.1661      7818.6482      1.8705811     -0.93529053   
      2555   279.1422      -85838.543     -3526.4926      7818.8228      1.8707753     -0.93538763   
      2560   280.5847      -85839.497     -3578.4322      7818.862       1.8710416     -0.93552081   
      2565   282.25762     -85840.122     -1108.3522      7818.7357      1.8714071     -0.93570353   
      2570   280.87366     -85841.112      5086.8204      7818.579       1.8717375     -0.93586876   
      2575   277.60793     -85841.456     -1193.0807      7818.5935      1.8717329     -0.93586644   
      2580   276.6384      -85841.923     -1113.1601      7818.6127      1.8712658     -0.93563289   
      2585   281.69424     -85842.184     -1130.0468      7818.5767      1.8705365     -0.93526823   
      2590   283.10159     -85842.488     -1080.5434      7818.457       1.8697391     -0.93486955   
      2595   286.06065     -85842.949     -2202.3991      7818.2411      1.8693329     -0.93466644   
      2600   279.98328     -85843.41      -4084.0189      7817.9133      1.8691262     -0.93456312   
      2605   268.6807      -85843.915     -1140.9104      7817.3936      1.8692927     -0.93464635   
      2610   272.5159      -85844.159      379.8066       7816.8127      1.8694763     -0.93473815   
      2615   275.67959     -85844.192      2528.2028      7816.3079      1.8694263     -0.93471313   
      2620   291.71178     -85844.82      -3956.8277      7815.9224      1.8696356     -0.93481779   
      2625   288.54826     -85844.976     -936.39441      7815.456       1.8703378     -0.93516891   
      2630   289.11544     -85845.545      1445.4748      7814.9546      1.8713856     -0.93569278   
      2635   279.58976     -85845.641      3457.8421      7814.5439      1.8727587     -0.93637937   
      2640   282.70417     -85846.475      2867.6166      7814.2527      1.8744754     -0.93723772   
      2645   284.90386     -85847.076      2977.0059      7814.0937      1.8760262     -0.93801312   
      2650   286.67126     -85847.367      1656.5042      7814.1385      1.8774167     -0.93870834   
      2655   282.60339     -85847.843      6207.7223      7814.3465      1.8789509     -0.93947547   
      2660   277.42792     -85848.207      5879.6006      7814.8148      1.8806716     -0.94033578   
      2665   264.99343     -85848.58       11060.334      7815.6348      1.8820914     -0.9410457    
      2670   267.38328     -85848.755      3877.5064      7816.919       1.8832328     -0.9416164    
      2675   276.08026     -85848.943      3320.1478      7818.4037      1.8838652     -0.9419326    
      2680   282.63062     -85848.75       3914.366       7820.0109      1.8839987     -0.94199934   
      2685   281.08628     -85848.684      12263.162      7821.7915      1.8840548     -0.94202742   
      2690   278.71476     -85848.559      4644.1091      7824.0113      1.8838034     -0.94190171   
      2695   279.10469     -85847.889      3834.5802      7826.4535      1.8826015     -0.94130073   
      2700   287.72586     -85847.347     -1790.3474      7828.9828      1.8805285     -0.94026425   
      2705   290.97706     -85846.602      6705.1653      7831.5077      1.8782603     -0.93913016   
      2710   293.24068     -85845.786      5699.8496      7834.3301      1.8759565     -0.93797827   
      2715   284.23291     -85844.51      -3590.0807      7837.4053      1.8734796     -0.93673981   
      2720   281.57941     -85843.438     -3150.6323      7840.3638      1.8709653     -0.93548267   
      2725   280.90913     -85842.043     -6507.1341      7843.1549      1.868513      -0.93425649   
      2730   281.26121     -85840.55      -6404.1225      7845.6423      1.8662214     -0.93311071   
      2735   275.23897     -85839.411     -2290.1088      7847.7877      1.8644084     -0.93220418   
      2740   270.41642     -85838.486     -2399.4697      7849.7619      1.863181      -0.93159052   
      2745   272.86763     -85837.38      -4498.6474      7851.5855      1.8623775     -0.93118875   
      2750   276.33619     -85836.538     -5332.9764      7853.2089      1.8621189     -0.93105947   
      2755   282.19575     -85835.547     -5214.3931      7854.6085      1.8623768     -0.9311884    
      2760   286.47917     -85834.685     -5140.8698      7855.7384      1.8631084     -0.93155422   
      2765   286.89645     -85833.875     -4466.1227      7856.6131      1.8645073     -0.93225364   
      2770   287.38105     -85833.418     -1159.5999      7857.274       1.8662981     -0.93314903   
      2775   289.21576     -85833.168     -78.872046      7857.8452      1.8682302     -0.9341151    
      2780   291.26734     -85832.641     -388.97519      7858.3812      1.8701163     -0.93505816   
      2785   289.46891     -85832.248      4468.1573      7858.9389      1.8720072     -0.93600362   
      2790   290.73684     -85831.697     -1271.0059      7859.6651      1.873802      -0.93690099   
      2795   291.85729     -85831.066     -490.39271      7860.3797      1.8753896     -0.9376948    
      2800   288.34488     -85830.513     -2323.224       7861.0653      1.8767697     -0.93838487   
      2805   284.92812     -85829.35       1472.1885      7861.6695      1.8778639     -0.93893197   
      2810   280.82665     -85828.317      1629.0002      7862.2804      1.8784122     -0.93920611   
      2815   284.78138     -85827.402     -2126.0432      7862.8863      1.8784417     -0.93922085   
      2820   283.99037     -85826.114      2348.6506      7863.3675      1.8781352     -0.93906759   
      2825   284.37044     -85825.057     -3199.8973      7863.8701      1.8774858     -0.9387429    
      2830   283.2648      -85823.71      -1211.4413      7864.2937      1.8765191     -0.93825957   
      2835   278.50589     -85822.03       2798.5736      7864.6872      1.8753632     -0.93768159   
      2840   282.80642     -85820.505     -3060.6721      7865.2011      1.8739937     -0.93699684   
      2845   274.75737     -85818.488      4760.7074      7865.6702      1.8723705     -0.93618525   
      2850   284.48314     -85817.231     -3482.3304      7866.2577      1.870608      -0.93530398   
      2855   280.98401     -85815.002     -1275.9272      7866.7823      1.8691743     -0.93458717   
      2860   286.1616      -85813.759     -2420.1358      7867.1814      1.8681689     -0.93408447   
      2865   283.44518     -85812.188      1306.3051      7867.4808      1.8674816     -0.9337408    
      2870   283.60339     -85811.078     -4961.411       7867.809       1.8674379     -0.93371894   
      2875   287.11135     -85809.316     -9462.1378      7867.939       1.8677172     -0.93385859   
      2880   289.66062     -85808.013     -5523.4531      7867.6949      1.8680765     -0.93403826   
      2885   295.23023     -85806.564     -4041.123       7867.2148      1.868716      -0.93435802   
      2890   296.48568     -85805.298     -3188.7473      7866.5604      1.8696616     -0.93483082   
      2895   294.3096      -85803.937     -794.64994      7865.7499      1.8707445     -0.93537223   
      2900   296.37431     -85802.328     -6898.373       7864.8465      1.8718044     -0.93590222   
      2905   295.72999     -85800.961     -4292.6028      7863.6841      1.8725606     -0.93628032   
      2910   300.68478     -85799.351     -4273.9538      7862.3165      1.8729055     -0.93645276   
      2915   297.15821     -85797.621      558.44582      7860.8029      1.8731984     -0.93659921   
      2920   294.12941     -85796.127     -685.62066      7859.2758      1.8735921     -0.93679607   
      2925   284.61229     -85794.218      4380.2214      7857.7386      1.8736066     -0.9368033    
      2930   291.53557     -85792.864     -302.38217      7856.3158      1.8733296     -0.9366648    
      2935   289.38756     -85791.123      474.59608      7854.9046      1.8733066     -0.93665329   
      2940   285.98793     -85789.45      -1451.1378      7853.4563      1.8730253     -0.93651265   
      2945   285.79719     -85787.411      3392.5167      7851.958       1.8725803     -0.93629014   
      2950   284.62529     -85785.443      2433.2159      7850.6137      1.8720574     -0.93602871   
      2955   291.06784     -85783.583     -364.93605      7849.3998      1.8716494     -0.93582469   
      2960   299.23228     -85781.781     -2292.7898      7848.1768      1.8711114     -0.93555569   
      2965   298.45924     -85779.973      1012.2175      7846.8775      1.8706542     -0.9353271    
      2970   297.46623     -85778.254      1028.4094      7845.5956      1.870471      -0.9352355    
      2975   290.34109     -85776.176     -2404.3323      7844.3864      1.8704205     -0.93521025   
      2980   288.36169     -85774.554     -1529.9794      7843.1393      1.8704305     -0.93521527   
      2985   296.3268      -85773.219     -4081.8683      7841.839       1.8705762     -0.9352881    
      2990   295.26705     -85771.911      4515.8049      7840.4702      1.8710719     -0.93553597   
      2995   294.74586     -85769.31       2570.1506      7839.2657      1.87185       -0.93592501   
      3000   296.42576     -85767.987      83.962228      7838.1356      1.8728533     -0.93642663   
      3005   300.45985     -85766.382     -1050.789       7837.0255      1.8736137     -0.93680686   
      3010   298.16873     -85764.527      5539.3479      7835.9515      1.874013      -0.9370065    
      3015   302.32419     -85762.353     -3150.4776      7835.0575      1.8739897     -0.93699483   
      3020   301.6822      -85760.345      1985.7945      7834.104       1.8733253     -0.93666266   
      3025   306.46323     -85758.541      665.59327      7833.2087      1.8723866     -0.93619332   
      3030   316.64632     -85756.53      -5988.2678      7832.3312      1.8716178     -0.9358089    
      3035   313.24028     -85754.625      70.203154      7831.3203      1.8709986     -0.93549931   
      3040   311.40486     -85752.439      7.3588804      7830.3525      1.8705229     -0.93526146   
      3045   313.21496     -85750.581     -3304.8423      7829.3794      1.8697366     -0.9348683    
      3050   318.80721     -85748.325     -320.95597      7828.3222      1.8687678     -0.93438392   
      3055   314.31703     -85746.577      4375.6091      7827.2778      1.8680812     -0.93404062   
      3060   309.29995     -85744.506     -3474.9865      7826.3497      1.867639      -0.93381951   
      3065   298.93371     -85742.818      2658.1704      7825.3002      1.8669317     -0.93346586   
      3070   296.86614     -85740.972      1803.5278      7824.3098      1.8658145     -0.93290723   
      3075   306.37793     -85738.98       294.67883      7823.3924      1.8643881     -0.93219403   
      3080   314.10586     -85737.663     -3180.9901      7822.516       1.8633667     -0.93168336   
      3085   312.10548     -85735.659     -6127.2597      7821.5315      1.8628564     -0.93142818   
      3090   310.89494     -85734.26      -4805.3785      7820.2804      1.8627407     -0.93137035   
      3095   313.46926     -85732.875      1543.7741      7818.8525      1.8631586     -0.93157932   
      3100   319.40296     -85731.296      3847.9098      7817.5041      1.863769      -0.93188452   
      3105   321.92434     -85730.028      562.92813      7816.3555      1.8646766     -0.93233831   
      3110   324.20102     -85728.687     -6481.8698      7815.2083      1.8658373     -0.93291864   
      3115   313.0687      -85727.906     -2419.5124      7813.7765      1.8670331     -0.93351656   
      3120   307.33691     -85727.076      987.50637      7812.2178      1.8682676     -0.93413379   
      3125   305.60015     -85726.06       8089.37        7810.7624      1.8696711     -0.93483553   
      3130   311.58586     -85725.409      4010.4274      7809.6776      1.8710793     -0.93553965   
      3135   318.94398     -85724.165     -384.40515      7808.8327      1.8723806     -0.93619028   
      3140   324.89188     -85723.111     -3369.5271      7807.9858      1.8734684     -0.9367342    
      3145   328.45691     -85722.583     -909.11257      7807.0397      1.8745569     -0.93727846   
      3150   325.60511     -85721.451     -1810.8346      7806.077       1.8757241     -0.93786207   
      3155   318.84068     -85720.484      5340.8242      7805.119       1.8766395     -0.93831974   
      3160   317.68445     -85719.368      8043.089       7804.3781      1.8772055     -0.93860277   
      3165   318.88534     -85718.841      4674.2177      7804.0125      1.8776797     -0.93883987   
      3170   316.8683      -85717.556     -521.04217      7803.9086      1.8777047     -0.93885236   
      3175   314.15112     -85716.517      1053.0293      7803.8176      1.877224      -0.93861202   
      3180   316.11894     -85715.835      9492.0577      7803.8455      1.8765333     -0.93826666   
      3185   323.52294     -85714.636     -140.0186       7804.2469      1.8755787     -0.93778936   
      3190   323.3576      -85713.525     -625.61075      7804.7072      1.8743135     -0.93715673   
      3195   321.89861     -85712.543      2794.2531      7805.1893      1.8729315     -0.93646577   
      3200   317.57024     -85711.358      5996.1484      7805.8141      1.8715891     -0.93579457   
      3205   320.91613     -85710.692     -601.01369      7806.6375      1.8702973     -0.93514866   
      3210   312.57286     -85709.193      2060.0157      7807.4643      1.8691258     -0.93456289   
      3215   319.38076     -85708.878     -2838.1037      7808.2414      1.8681045     -0.93405226   
      3220   320.05001     -85708.354     -5787.159       7808.8785      1.8671702     -0.9335851    
      3225   314.06564     -85707.932     -3629.8619      7809.2847      1.8664113     -0.93320566   
      3230   318.56533     -85706.995     -701.04479      7809.5332      1.865972      -0.93298602   
      3235   322.00078     -85706.636     -207.17975      7809.7774      1.86558       -0.93278998   
      3240   326.92059     -85706.276      1441.2226      7810.0599      1.8653842     -0.93269211   
      3245   330.16638     -85706.277     -5053.4077      7810.3661      1.865613      -0.93280649   
      3250   324.66779     -85706.354     -2351.9972      7810.5167      1.8658017     -0.93290087   
      3255   317.53086     -85705.599     -2.629259       7810.5917      1.8657428     -0.93287138   
      3260   321.59739     -85705.601      1337.7152      7810.6575      1.8657607     -0.93288035   
      3265   322.21918     -85705.44       5688.2484      7810.7655      1.865849      -0.9329245    
      3270   324.44511     -85706.004     -987.23313      7811.0592      1.8657832     -0.93289159   
      3275   320.58919     -85705.543      224.78698      7811.3944      1.8658762     -0.93293811   
      3280   325.71899     -85705.79      -32.816763      7811.7397      1.8661829     -0.93309146   
      3285   324.24217     -85706.037      1785.5924      7812.0892      1.8665382     -0.93326912   
      3290   320.91125     -85706.168      286.57272      7812.477       1.8667899     -0.93339496   
      3295   317.39642     -85706.746     -441.11475      7812.8563      1.8668573     -0.93342864   
      3300   313.36449     -85706.881     -1793.1458      7813.1977      1.8668468     -0.93342342   
      3305   314.74754     -85707.51      -3012.8695      7813.4737      1.8669056     -0.93345282   
      3310   310.70247     -85707.654      3128.6706      7813.6715      1.8669512     -0.93347558   
      3315   308.60639     -85708.224      1310.3584      7813.964       1.8670837     -0.93354185   
      3320   314.11233     -85708.936     -2274.3886      7814.3299      1.8674044     -0.93370219   
      3325   308.92082     -85709.323      1666.3586      7814.6575      1.8678504     -0.93392519   
      3330   311.56041     -85709.748      961.02736      7815.0435      1.8682972     -0.93414861   
      3335   316.45186     -85710.146     -1598.1922      7815.4479      1.868325      -0.93416248   
      3340   321.98849     -85710.712     -1591.2348      7815.758       1.8683119     -0.93415595   
      3345   322.36863     -85711.586      5346.3841      7816.0559      1.8681106     -0.93405529   
      3350   319.6236      -85711.7        2044.7444      7816.6225      1.8682473     -0.93412364   
      3355   314.56193     -85712.637     -623.64674      7817.2968      1.8686838     -0.93434192   
      3360   312.24234     -85713.528     -835.24297      7817.9323      1.8690866     -0.93454332   
      3365   307.95695     -85713.837     -2478.6231      7818.5344      1.869386      -0.93469301   
      3370   314.29486     -85714.796     -1311.0985      7818.9997      1.8697259     -0.93486297   
      3375   321.23113     -85715.97       4367.369       7819.4115      1.8697316     -0.93486581   
      3380   329.02092     -85716.724     -761.82116      7819.9915      1.8695294     -0.93476472   
      3385   330.33128     -85717.456     -4282.831       7820.5597      1.8694363     -0.93471816   
      3390   317.11742     -85718.279     -1994.2257      7820.9459      1.8693259     -0.93466295   
      3395   312.5325      -85719.451     -2423.3721      7821.2016      1.8691818     -0.9345909    
      3400   312.09327     -85720.761      1156.486       7821.3895      1.8689046     -0.93445228   
      3405   312.27183     -85721.795      3752.3783      7821.6687      1.868521      -0.93426052   
      3410   318.89922     -85722.984      3789.1014      7822.1545      1.8682733     -0.93413663   
      3415   328.26782     -85723.979     -2248.8606      7822.8266      1.8681284     -0.93406419   
      3420   326.11467     -85725.106     -635.3441       7823.4802      1.8680585     -0.93402925   
      3425   319.93594     -85726.406      1896.0833      7824.1221      1.8683524     -0.93417622   
      3430   310.78034     -85727.898     -189.03162      7824.8338      1.8688008     -0.93440039   
      3435   304.99988     -85728.928     -1585.7664      7825.552       1.8687819     -0.93439094   
      3440   312.6462      -85729.952      5049.2534      7826.2387      1.8682713     -0.93413566   
      3445   315.47953     -85731.295      3582.1425      7827.0945      1.8678863     -0.93394315   
      3450   316.175       -85732.662     -1073.6319      7828.0729      1.8676215     -0.93381073   
      3455   306.34847     -85734.22       2160.9376      7829.0448      1.8673822     -0.9336911    
      3460   296.84497     -85735.451      2109.6229      7830.1287      1.8674244     -0.93371218   
      3465   293.84158     -85736.442     -878.30727      7831.2919      1.8670113     -0.93350566   
      3470   305.17366     -85737.602     -3890.422       7832.3769      1.86591       -0.93295498   
      3475   310.8856      -85738.823      5367.9037      7833.3427      1.8644787     -0.93223937   
      3480   313.15957     -85740.093      697.29187      7834.4568      1.86326       -0.93163001   
      3485   300.04712     -85740.814     -517.79389      7835.6596      1.8624012     -0.93120058   
      3490   292.05429     -85741.926     -6915.0315      7836.8015      1.8616797     -0.93083986   
      3495   284.62183     -85743.049      1419.4121      7837.6698      1.8607205     -0.93036023   
      3500   291.39897     -85744.25      -2428.576       7838.4905      1.8599341     -0.92996706   
      3505   301.26954     -85745.408     -1317.3491      7839.2044      1.8596738     -0.92983688   
      3510   307.57006     -85747.025     -962.04907      7839.8505      1.8599556     -0.92997782   
      3515   312.96539     -85748.484     -4475.2298      7840.487       1.8607868     -0.93039338   
      3520   305.8728      -85749.787     -4519.789       7840.9432      1.8621792     -0.93108958   
      3525   302.06453     -85751.687     -2632.662       7841.1638      1.8641814     -0.93209068   
      3530   306.6977      -85753.805      1426.3358      7841.2742      1.8661766     -0.93308832   
      3535   306.31411     -85755.383      4475.569       7841.4528      1.8682492     -0.93412459   
      3540   308.50759     -85757.318     -2036.3931      7841.8112      1.8702976     -0.93514878   
      3545   306.7214      -85759.27      -4145.9154      7842.1159      1.8722373     -0.93611867   
      3550   300.09225     -85761.134     -107.11689      7842.2734      1.8740004     -0.9370002    
      3555   291.91495     -85763.162      3790.5447      7842.4738      1.8752212     -0.93761061   
      3560   288.35418     -85764.445      3506.2391      7842.8619      1.8758938     -0.93794691   
      3565   289.76557     -85766.004      508.39975      7843.4148      1.8761732     -0.93808659   
      3570   296.95735     -85767.56      -843.54622      7843.9846      1.8762542     -0.93812711   
      3575   301.85326     -85768.839     -1377.973       7844.5036      1.876343      -0.93817152   
      3580   297.96278     -85769.907      648.54162      7844.9711      1.8765356     -0.93826779   
      3585   298.76713     -85770.988     -1424.8634      7845.4221      1.8765041     -0.93825206   
      3590   309.39017     -85772.62      -1170.6306      7845.7882      1.8757668     -0.93788342   
      3595   314.70275     -85773.466     -1263.1632      7846.1041      1.8744911     -0.93724557   
      3600   317.22422     -85774.394     -68.698514      7846.3746      1.872867      -0.9364335    
      3605   310.26593     -85775.566      3266.2524      7846.6273      1.8711983     -0.93559916   
      3610   301.50508     -85777.184      1779.1304      7847.0014      1.8695334     -0.9347667    
      3615   300.84109     -85777.802     -6075.8232      7847.4455      1.8676641     -0.93383204   
      3620   305.56519     -85778.438     -6298.593       7847.7022      1.8658169     -0.93290844   
      3625   309.44462     -85779.385     -5259.8483      7847.6859      1.8641101     -0.93205507   
      3630   307.46723     -85780.487     -250.13607      7847.457       1.8626093     -0.93130464   
      3635   301.30801     -85781.392     -7662.0781      7847.1569      1.861673      -0.93083648   
      3640   294.96126     -85782.725     -4103.8649      7846.5724      1.8609306     -0.93046532   
      3645   297.21389     -85783.89      -5939.7825      7845.7356      1.8602928     -0.93014638   
      3650   295.07591     -85785.502     -335.45265      7844.652       1.8600997     -0.93004985   
      3655   294.91926     -85786.537     -1932.23        7843.5165      1.860212      -0.930106     
      3660   291.72352     -85788.484     -7154.5403      7842.2598      1.8604593     -0.93022966   
      3665   288.50772     -85789.925     -1848.1936      7840.7094      1.8607112     -0.93035562   
      3670   296.96154     -85791.237      5776.4775      7839.0459      1.86118       -0.93059001   
      3675   305.50909     -85793.374      1782.7379      7837.552       1.862033      -0.93101652   
      3680   302.22036     -85794.618     -7797.4903      7836.1086      1.8632678     -0.93163388   
      3685   293.94718     -85796.262     -5230.2937      7834.3741      1.864639      -0.93231948   
      3690   287.79853     -85797.584      1239.1208      7832.4627      1.8660116     -0.93300578   
      3695   288.69239     -85798.84       4595.006       7830.6291      1.8674054     -0.93370268   
      3700   296.65823     -85800.377     -4246.5242      7828.9387      1.8690466     -0.93452328   
[...]
      4090   282.78435     -85818.535      289.26435      7803.7395      1.8722251     -0.93611254   
      4095   278.01702     -85817.879      3039.9228      7803.4462      1.8741191     -0.93705957   
      4100   285.17722     -85817.307      3242.221       7803.3021      1.8759104     -0.93795522   
      4105   283.86188     -85816.671      5848.8714      7803.3351      1.8775824     -0.93879118   
      4110   288.96389     -85816.091     -89.753856      7803.5494      1.87915       -0.93957501   
      4115   291.15866     -85815.136     -1246.1173      7803.7624      1.8805094     -0.94025472   
      4120   284.45367     -85814.179      5533.576       7803.9783      1.8815805     -0.94079027   
      4125   284.17855     -85813.227      7811.5197      7804.4454      1.8823995     -0.94119973   
      4130   284.53779     -85812.348      3631.0354      7805.2779      1.8827296     -0.9413648    
      4135   292.09078     -85810.971      692.32925      7806.3051      1.8826711     -0.94133553   
      4140   292.28686     -85809.704      4883.2766      7807.3725      1.8822416     -0.94112082   
      4145   296.34676     -85808.45       753.74441      7808.5793      1.8817002     -0.94085011   
      4150   290.53157     -85806.809      2421.1884      7809.8139      1.8808863     -0.94044315   
      4155   290.81657     -85805.283      2117.6517      7811.1391      1.8795078     -0.93975389   
      4160   303.3762      -85803.636      5.4350065      7812.5647      1.8777327     -0.93886633   
      4165   309.33257     -85801.886      2950.6141      7814.0015      1.8756135     -0.93780677   
      4170   311.31367     -85800.053     -2240.6151      7815.4918      1.8736177     -0.93680886   
      4175   302.03418     -85798.09      -4318.366       7816.9265      1.8715828     -0.93579141   
      4180   293.38814     -85796.167      2822.3539      7818.2197      1.8694919     -0.93474595   
      4185   289.09473     -85794.661     -7.0462831      7819.5471      1.8676031     -0.93380153   
      4190   287.89701     -85793.074     -5051.2833      7820.8765      1.8662124     -0.93310619   
      4195   288.85819     -85791.372     -7277.3252      7821.9867      1.8652906     -0.9326453    
      4200   289.60252     -85790.264     -1596.3932      7822.7964      1.8649126     -0.93245628   
      4205   289.53827     -85788.483     -1572.9437      7823.5156      1.865083      -0.93254152   
      4210   284.90291     -85787.544     -5093.5468      7824.0945      1.8657744     -0.93288722   
      4215   287.79275     -85786.613     -5686.4006      7824.4162      1.8668111     -0.93340556   
      4220   288.92011     -85785.718     -1992.8231      7824.5088      1.8678451     -0.93392256   
      4225   295.06169     -85784.894     -619.01179      7824.5198      1.8689067     -0.93445337   
      4230   298.6584      -85783.396     -4215.0588      7824.4732      1.869788      -0.93489401   
      4235   301.58101     -85782.218     -2072.0231      7824.2441      1.8705202     -0.93526009   
      4240   307.31189     -85781.132     -397.49051      7823.9554      1.8710808     -0.93554038   
      4245   311.01137     -85779.394     -4702.3723      7823.6859      1.8715057     -0.93575284   
      4250   308.81125     -85778.173     -1881.0856      7823.2658      1.8719397     -0.93596987   
      4255   305.29822     -85776.784      1285.5982      7822.7574      1.8721047     -0.93605233   
      4260   301.48697     -85775.241      613.16596      7822.3033      1.8721968     -0.9360984    
      4265   298.97227     -85774.308     -2730.2284      7821.8752      1.8721838     -0.9360919    
      4270   299.25163     -85773.113     -697.43627      7821.3613      1.8720762     -0.93603808   
      4275   302.02647     -85771.266      3573.0578      7820.8432      1.8720227     -0.93601137   
      4280   303.78438     -85770.199     -588.65774      7820.4532      1.8723114     -0.93615571   
      4285   299.50359     -85769.024      1748.0073      7820.0902      1.8726998     -0.93634992   
      4290   303.83543     -85767.666     -3597.9533      7819.7504      1.8729638     -0.93648189   
      4295   298.38779     -85766.337      5044.0152      7819.3583      1.8734219     -0.93671093   
      4300   293.89613     -85765.027      1966.2952      7819.1267      1.8739299     -0.93696494   
      4305   290.56397     -85763.606     -731.66723      7818.93        1.8741294     -0.93706472   
      4310   298.3372      -85762.08       866.66579      7818.6759      1.8737821     -0.93689105   
      4315   311.44683     -85760.865      1061.6302      7818.4377      1.8734487     -0.93672433   
      4320   314.58269     -85759.074      2205.4095      7818.2629      1.8728657     -0.93643286   
      4325   314.43823     -85757.645      698.67647      7818.1174      1.8722834     -0.93614169   
      4330   311.65828     -85756.504     -189.39113      7817.9368      1.8717494     -0.93587469   
      4335   307.28868     -85754.805      5321.5526      7817.7667      1.8707972     -0.93539862   
      4340   310.24378     -85753.388     -1138.0362      7817.767       1.8693668     -0.9346834    
      4345   312.24885     -85751.721     -5815.6314      7817.7144      1.8678111     -0.93390557   
      4350   305.27927     -85750.174     -5002.7316      7817.4052      1.8665474     -0.9332737    
      4355   299.06997     -85748.983     -430.30915      7816.8765      1.865661      -0.93283051   
      4360   295.73753     -85747.673     -3078.3843      7816.2916      1.864965      -0.93248249   
      4365   300.6774      -85746.135     -3097.3859      7815.581       1.8642017     -0.93210086   
      4370   307.51093     -85744.937     -5414.5491      7814.7006      1.8638121     -0.93190606   
      4375   306.31672     -85744.125      760.58372      7813.6106      1.8639019     -0.93195096   
      4380   309.28843     -85742.994     -2782.7177      7812.4654      1.864142      -0.93207098   
      4385   309.28316     -85742.323     -1993.7312      7811.1977      1.8643724     -0.93218618   
      4390   324.36        -85741.296     -1156.486       7809.8113      1.8647927     -0.93239633   
      4395   321.98051     -85740.312      1503.2253      7808.4005      1.8655884     -0.93279419   
      4400   318.22979     -85739.092      2873.7482      7807.0939      1.8665826     -0.93329129   
      4405   318.55017     -85738.642     -2103.9546      7805.8964      1.867905      -0.9339525    
      4410   315.58314     -85738.114      1526.4608      7804.6518      1.8691757     -0.93458786   
      4415   319.5281      -85737.265      927.14416      7803.438       1.8704623     -0.93523114   
      4420   320.63192     -85736.592      2297.3549      7802.2993      1.8720068     -0.9360034    
      4425   325.41457     -85736.56      -1614.0064      7801.2629      1.8738931     -0.93694655   
      4430   324.10624     -85736.768      1314.0939      7800.2161      1.8760263     -0.93801313   
      4435   321.53462     -85736.237      7557.6691      7799.3005      1.8784888     -0.93924442   
      4440   319.27939     -85736.018      10406.148      7798.81        1.8812098     -0.94060488   
      4445   318.45753     -85735.716      5346.2362      7798.8136      1.8835308     -0.94176538   
      4450   321.8816      -85735.785      899.97349      7799.0281      1.8852903     -0.94264514   
      4455   318.04596     -85735.466      8780.2271      7799.3545      1.8867323     -0.94336614   
      4460   318.94894     -85736.418      6967.9522      7800.0423      1.8878205     -0.94391025   
      4465   311.99619     -85735.553      9039.4169      7801.1139      1.8885782     -0.94428908   
      4470   311.05757     -85734.977      7776.4642      7802.6284      1.8884205     -0.94421026   
      4475   307.88642     -85735.23       11522.182      7804.5515      1.8876114     -0.94380572   
      4480   307.86054     -85734.436      3834.211       7806.9542      1.8864215     -0.94321073   
      4485   308.13564     -85733.927      4738.7516      7809.6177      1.8846481     -0.94232405   
      4490   314.56296     -85732.592      4707.1359      7812.4967      1.8821621     -0.94108107   
      4495   315.37801     -85731.82       11530.586      7815.5692      1.8791678     -0.93958388   
      4500   323.92716     -85731.313      1082.2368      7819.0065      1.8761848     -0.93809242   
      4505   322.23167     -85730.595      735.79579      7822.5462      1.8731949     -0.93659744   
      4510   314.78225     -85729.163      1709.4272      7826.1288      1.8700684     -0.9350342    
      4515   312.56665     -85728.631      633.12226      7829.7382      1.8669752     -0.9334876    
      4520   307.49232     -85727.84      -2412.4529      7833.3496      1.8639248     -0.93196238   
      4525   305.98283     -85726.837      2389.7106      7836.8675      1.8611403     -0.93057015   
      4530   310.20926     -85726.467     -5648.5294      7840.3865      1.8589881     -0.92949405   
      4535   306.37471     -85725.409     -5005.2336      7843.685       1.8573045     -0.92865224   
      4540   301.58728     -85725.498     -2829.563       7846.724       1.856467      -0.92823351   
      4545   294.24564     -85724.921     -8916.2288      7849.5677      1.8566643     -0.92833215   
      4550   288.48477     -85724.652     -4531.7885      7852.0278      1.8575201     -0.92876007   
      4555   293.88698     -85724.838     -726.3217       7854.2398      1.8589095     -0.92945476   
      4560   303.63448     -85725.548     -1945.7445      7856.4122      1.8607899     -0.93039497   
      4565   306.20155     -85725.851     -3172.3089      7858.5237      1.8630392     -0.93151958   
      4570   301.87426     -85726.203     -465.79125      7860.4801      1.8653299     -0.93266494   
      4575   306.53232     -85726.755     -3484.8711      7862.3154      1.8676495     -0.93382477   
      4580   309.05216     -85727.01      -695.27836      7864.0386      1.8695342     -0.93476712   
      4585   322.57195     -85727.492     -7829.6552      7865.679       1.8709645     -0.93548226   
      4590   328.96642     -85727.866     -5642.0876      7867.039       1.8724416     -0.93622082   
      4595   322.2255      -85728.132      1389.935       7868.2016      1.8737938     -0.9368969    
      4600   320.40711     -85728.474      2400.7548      7869.4024      1.8747754     -0.9373877    
      4605   314.75579     -85728.732      2218.1937      7870.7606      1.8751943     -0.93759713   
      4610   324.42593     -85729.157     -438.99763      7872.2124      1.8750971     -0.93754854   
      4615   327.35567     -85729.277     -4094.4313      7873.6508      1.874893      -0.93744648   
      4620   324.17627     -85729.377      3087.4295      7874.9717      1.8746045     -0.93730225   
      4625   315.25435     -85729.654      2461.277       7876.3576      1.8739492     -0.93697458   
      4630   309.20171     -85730.092      911.32053      7877.8512      1.8732921     -0.93664605   
      4635   306.07152     -85730.17      -1984.2456      7879.3696      1.8725347     -0.93626737   
      4640   306.25398     -85730.469      3938.4309      7880.8058      1.8715037     -0.93575187   
      4645   308.88805     -85731.09       4442.4103      7882.346       1.8704269     -0.93521345   
      4650   303.4948      -85731.572      2202.725       7884.0924      1.8700199     -0.93500993   
      4655   295.89116     -85731.798     -5361.6689      7885.9391      1.8699768     -0.93498842   
      4660   293.27846     -85732.07      -7444.0581      7887.5621      1.869979      -0.93498952   
      4665   295.29573     -85732.514     -2294.9844      7888.8345      1.8699412     -0.93497059   
      4670   300.26183     -85732.806     -575.74951      7889.9549      1.8697625     -0.93488124   
      4675   312.50484     -85733.35      -3646.1411      7891.0151      1.8693098     -0.93465489   
      4680   317.13743     -85733.842      1526.8539      7891.9594      1.8689838     -0.93449191   
      4685   318.68029     -85734.243      145.097        7892.9421      1.8687931     -0.93439657   
      4690   323.00716     -85734.991     -5450.3357      7893.8862      1.8685209     -0.93426043   
      4695   315.74849     -85735.308     -2101.5095      7894.6224      1.8681063     -0.93405314   
      4700   315.82634     -85735.827     -4502.4949      7895.221       1.8673108     -0.93365542   
      4705   319.45828     -85736.211     -10229.135      7895.5917      1.8662329     -0.93311644   
      4710   315.59278     -85736.459     -4835.8007      7895.5364      1.8652177     -0.93260884   
      4715   318.45402     -85737.181     -4924.4275      7895.1608      1.8643755     -0.93218776   
      4720   313.27879     -85737.675     -451.12846      7894.5399      1.8637441     -0.93187203   
      4725   311.61978     -85738.597     -908.01938      7893.8431      1.8634138     -0.93170688   
      4730   317.82615     -85739.51      -3378.2783      7893.0726      1.8633121     -0.93165606   
      4735   317.62596     -85740.579     -1792.8978      7892.1321      1.8634083     -0.93170416   
      4740   322.4472      -85742.013     -5238.5909      7891.0077      1.8640844     -0.93204218   
      4745   319.66237     -85743.408      1818.8224      7889.6717      1.8648251     -0.93241257   
      4750   312.50649     -85744.909     -5122.9715      7888.3446      1.8657687     -0.93288435   
      4755   303.72195     -85746.364     -5814.4962      7886.8015      1.8666668     -0.9333334    
      4760   299.74059     -85747.901     -3039.0832      7884.9874      1.8672458     -0.93362291   
      4765   294.52146     -85749.027      617.45719      7883.0424      1.8677815     -0.93389077   
      4770   294.02139     -85750.019      1959.1194      7881.1016      1.8682888     -0.93414439   
      4775   297.3216      -85751.175      232.87015      7879.2109      1.8688372     -0.93441859   
      4780   299.84713     -85752.777     -629.87223      7877.3243      1.8696559     -0.93482793   
      4785   302.63307     -85753.971     -2133.27        7875.406       1.8703561     -0.93517807   
      4790   304.47013     -85755.085     -1723.5681      7873.412       1.8708983     -0.93544915   
      4795   301.15417     -85755.939     -772.78777      7871.381       1.8711594     -0.93557972   
      4800   301.05488     -85756.999     -3214.3828      7869.2755      1.8713219     -0.93566095   
      4805   294.56377     -85758.284     -4198.2883      7866.9859      1.8711027     -0.93555137   
      4810   295.82749     -85759.278     -4296.4861      7864.5203      1.870648      -0.935324     
      4815   295.77548     -85760.212     -4137.8066      7861.8612      1.8700228     -0.9350114    
      4820   296.35334     -85761.515     -1079.7455      7859.03        1.8691747     -0.93458734   
      4825   302.21909     -85762.299     -5697.0114      7856.1272      1.8681614     -0.9340807    
      4830   304.07384     -85763.356     -6973.3572      7852.9977      1.8674217     -0.93371086   
      4835   301.77899     -85764.159      1446.9927      7849.6039      1.8669492     -0.93347459   
      4840   300.41497     -85765.127      403.02513      7846.1969      1.8665297     -0.93326485   
      4845   305.19003     -85766.585     -5077.3394      7842.7438      1.8662757     -0.93313784   
      4850   307.92614     -85767.093     -2945.9918      7839.1009      1.8656202     -0.93281012   
      4855   311.46394     -85768.069     -2294.494       7835.3898      1.864735      -0.9323675    
      4860   306.31149     -85768.948     -2323.4265      7831.587       1.8638541     -0.93192707   
      4865   304.12712     -85770.158     -264.44924      7827.6567      1.8630181     -0.93150905   
      4870   289.38439     -85770.437      7234.1788      7823.7307      1.8624947     -0.93124736   
      4875   296.40024     -85772.177     -3936.801       7819.9754      1.8623108     -0.93115541   
      4880   295.14214     -85773.201     -1380.7394      7816.1132      1.8625965     -0.93129823   
      4885   304.46936     -85774.642     -4101.2646      7812.1665      1.8632288     -0.93161438   
      4890   306.63322     -85775.883      2332.5791      7808.0925      1.86479       -0.93239499   
      4895   306.4731      -85777.337     -438.62351      7804.079       1.8668475     -0.93342377   
      4900   306.13989     -85779.264      1301.6717      7800.1113      1.8690415     -0.93452077   
      4905   305.12623     -85780.627      4514.2616      7796.2395      1.8714338     -0.93571688   
      4910   306.17633     -85782.224      1310.2833      7792.572       1.8739282     -0.9369641    
      4915   306.68049     -85783.806      7982.1686      7789.0452      1.8761807     -0.93809037   
      4920   302.45094     -85785.183      6792.0967      7785.8532      1.8786076     -0.93930381   
      4925   298.8362      -85786.673      5115.0836      7782.9888      1.8810661     -0.94053303   
      4930   290.98318     -85788.219      5610.2296      7780.378       1.882998      -0.94149901   
      4935   293.78887     -85789.616      5069.5974      7778.007       1.8844403     -0.94222015   
      4940   298.51979     -85791.111      5049.7833      7775.9289      1.8852968     -0.9426484    
      4945   297.94089     -85791.318      6443.0596      7774.191       1.8855726     -0.94278631   
      4950   299.55835     -85792.241      12218.474      7772.7967      1.8854607     -0.94273036   
      4955   305.14411     -85792.936      5463.4412      7771.893       1.8849284     -0.94246418   
      4960   307.58269     -85793.696      4969.3923      7771.2751      1.8839489     -0.94197446   
      4965   307.78251     -85794.658      4826.3801      7770.8666      1.8826027     -0.94130133   
      4970   303.40008     -85795.182      3825.6142      7770.6861      1.881083      -0.9405415    
      4975   295.36112     -85795.37       6124.3443      7770.6927      1.8790541     -0.93952704   
      4980   300.48489     -85796.353      576.73618      7770.8814      1.8765202     -0.93826008   
      4985   296.63912     -85796.494      5683.7611      7771.1653      1.8737035     -0.93685173   
      4990   294.50049     -85796.916     -386.73207      7771.6315      1.8711039     -0.93555194   
      4995   286.31958     -85797.29       4202.8158      7772.123       1.8687872     -0.93439361   
      5000   279.2537      -85798.048      2441.7947      7772.7349      1.8669469     -0.93347343   
Loop time of 364.214 on 4 procs for 5000 steps with 576 atoms

Performance: 0.593 ns/day, 40.468 hours/ns, 13.728 timesteps/s, 7.907 katom-step/s
37.2% CPU use with 4 MPI tasks x 1 OpenMP threads

MPI task timing breakdown:
Section |  min time  |  avg time  |  max time  |%varavg| %total
---------------------------------------------------------------
Pair    | 294.68     | 298.23     | 302.03     |  15.6 | 81.88
Bond    | 0.001811   | 0.0019223  | 0.001991   |   0.2 |  0.00
Neigh   | 16.989     | 17.054     | 17.087     |   0.9 |  4.68
Comm    | 9.6775     | 13.471     | 16.997     |  73.3 |  3.70
Output  | 0.073996   | 0.079408   | 0.091042   |   2.4 |  0.02
Modify  | 35.289     | 35.322     | 35.405     |   0.8 |  9.70
Other   |            | 0.05345    |            |       |  0.01

Nlocal:            144 ave         150 max         141 min
Histogram: 1 1 1 0 0 0 0 0 0 1
Nghost:         3522.5 ave        3553 max        3478 min
Histogram: 1 0 0 0 0 0 1 1 0 1
Neighs:        68753.5 ave       72007 max       67425 min
Histogram: 2 1 0 0 0 0 0 0 0 1

Total # of neighbors = 275014
Ave neighs/atom = 477.45486
Ave special neighs/atom = 0
Neighbor list builds = 1000
Dangerous builds not checked

write_data silica-relaxed.data
System init for write_data ...
Total wall time: 0:06:04
