ITEM: TIMESTEP
10750
ITEM: NUMBER OF ATOMS
32000
ITEM: BOX BOUNDS pp pp pp
4.2286710800675786e+00 7.6771328919932472e+01
-2.2876227368686273e+00 8.3287622736868826e+01
-2.2883259792123951e+00 8.3288325979211891e+01
ITEM: ATOMS id type xs ys zs c_csym c_peratom fx fy fz
8 1 0.0548309 0.0285135 0.0290915 6.50203 -3.28597 -0.15408 0.200447 -0.0387617
4 1 0.00114944 0.029677 0.029211 1.71112 -3.29893 0.376575 -0.412011 -0.0738153
83 1 0.0278451 0.0523213 0.0266997 0.745139 -3.26961 0.080773 -0.0490118 0.404066
12 1 0.0926309 0.0238366 0.0235484 6.36315 -3.3751 0.113434 0.136062 -0.0075846
1609 1 0.0943645 1.00003 0.0490644 5.84712 -3.24482 -0.340767 -0.1557 -0.406093
6 1 0.0673369 0.0219335 0.998376 7.52036 -3.30884 -0.0736496 0.0827742 0.0994543
16 1 0.147216 0.0233751 0.0262353 1.37583 -3.28535 0.0299578 0.602177 -0.185668
91 1 0.119738 0.0488875 0.0231705 6.05851 -3.32637 0.0365549 -0.200221 0.11917
14 1 0.171961 0.0260548 0.999459 0.330852 -3.3471 -0.176121 0.0368369 0.0700445
1610 1 0.116363 0.0254527 0.0491183 7.16129 -3.25818 0.864214 -0.408892 -0.0848254
1693 1 0.145773 0.0484766 0.0493643 5.77791 -3.32719 -0.0823521 -0.157799 0.147355
1614 1 0.174604 0.0255639 0.051027 1.38396 -3.28447 -0.302724 -0.392481 0.0271243
20 1 0.1957 0.0266089 0.0251662 0.699708 -3.25191 0.358303 -0.259683 -0.375721
1618 1 0.22114 0.0260296 0.0486305 0.734657 -3.36678 0.219029 -0.185992 0.174212
24 1 0.249611 0.0264254 0.0240957 0.796535 -3.29727 -0.492574 -0.104825 -0.13531
1622 1 0.274692 0.0242268 0.0472115 0.878071 -3.31881 0.0712443 0.13675 0.576824
1701 1 0.247763 0.0499079 0.0487129 0.378035 -3.2657 0.0916651 -0.0340346 -0.392929
23 1 0.27232 0.000954938 0.0252127 0.9011 -3.2913 0.564799 -0.1964 -0.247988
1621 1 0.247332 1.00103 0.0482259 0.657405 -3.29745 0.0655381 0.0912817 0.367831
101 1 0.249305 0.0495012 0.999647 0.214565 -3.37025 -0.219313 0.306801 0.0865546
28 1 0.301339 0.0238232 0.0231827 0.799535 -3.31143 -0.391356 0.322056 0.475212
32 1 0.353161 0.0240844 0.0261241 0.689702 -3.26153 0.0979315 0.218313 -0.188209
109 1 0.351864 0.0501286 0.998897 0.577741 -3.31695 -0.16767 -0.0786029 -0.0738948
30 1 0.375505 0.0236633 0.00152105 1.61749 -3.31379 0.509553 0.275735 -0.385708
36 1 0.401576 0.0262361 0.0257199 0.7372 -3.2786 -0.203484 -0.435892 -0.205731
111 1 0.375432 0.0512348 0.0234787 1.00186 -3.31326 0.203319 -0.1239 0.084508
113 1 0.401489 0.052225 0.998816 0.846614 -3.272 -0.373333 -0.410796 0.343343
40 1 0.450046 0.0231333 0.0247688 1.23598 -3.2934 0.26694 0.55905 0.209677
115 1 0.425533 0.048931 0.022849 1.29753 -3.28176 0.437996 0.607435 0.524329
44 1 0.499144 0.0252585 0.0221294 0.936035 -3.28369 0.171986 0.465826 -0.117988
119 1 0.475135 0.0519358 0.0251174 1.00129 -3.33342 -0.158687 -0.548687 -0.426944
39 1 0.477596 -0.000128302 0.0260957 1.41892 -3.2304 -0.0356183 -0.0335748 -0.289925
43 1 0.522423 -0.0009465 0.0238288 1.36676 -3.26779 0.49187 0.250454 0.560003
48 1 0.549557 0.024022 0.0250872 0.587643 -3.32198 -0.164228 0.264766 -0.149061
47 1 0.573264 -0.00147863 0.0277187 1.1508 -3.28573 -0.00104823 0.229166 -0.287033
1645 1 0.54665 1.7972e-05 0.052939 6.31658 -3.26475 0.284617 0.208428 -0.766781
52 1 0.598125 0.024119 0.0268231 0.795265 -3.25504 -0.316312 0.0316649 0.0387624
51 1 0.624459 1.00271 0.0270826 1.31164 -3.28018 0.0378884 -0.835326 -0.0366562
1650 1 0.625183 0.0251513 0.0503886 0.739514 -3.28873 0.00646884 -0.120722 0.107051
1649 1 0.597112 0.997756 0.050902 2.03867 -3.23436 0.244049 0.288491 -0.0910589
56 1 0.650694 0.0251989 0.0255063 0.488631 -3.28244 -0.0799427 0.27977 0.279927
60 1 0.699747 0.0267948 0.0235376 1.28592 -3.29278 -0.419871 -0.277698 0.452993
1654 1 0.675488 0.0242444 0.050912 0.738889 -3.31809 -0.0988681 0.26814 -0.0328485
64 1 0.75013 0.0275584 0.0255166 0.933179 -3.28522 0.223012 -0.166457 0.225855
58 1 0.726541 0.0246954 0.00197813 1.3696 -3.23767 -0.200649 -0.00957389 -0.44294
63 1 0.776867 1.00328 0.0237709 2.20966 -3.20667 -0.810521 -0.926788 -0.0185289
68 1 0.799621 0.0251182 0.0266189 0.347483 -3.21791 0.582751 0.635839 -0.03675
62 1 0.776188 0.0237393 -0.000201685 1.23658 -3.28998 -0.0140401 0.432052 0.337901
143 1 0.775853 0.0506821 0.0255641 0.359711 -3.32571 0.00416763 0.0578997 0.0130464
72 1 0.850256 0.0231852 0.0264655 0.940782 -3.27631 -0.0266455 0.695695 -0.0127881
70 1 0.876604 0.0249469 0.000397728 0.61019 -3.32691 -0.311256 0.243931 0.472811
66 1 0.825642 0.0263844 0.0021415 0.538445 -3.28602 -0.045985 -0.167268 -0.396331
147 1 0.825881 0.0494201 0.0281111 6.12394 -3.25535 0.0561706 -0.545193 -0.2401
71 1 0.874233 1.00052 0.0254344 0.781317 -3.29745 0.37346 -0.448763 0.0259089
69 1 0.846633 1.00037 0.00208272 6.75027 -3.29739 0.460936 -0.179661 -0.259219
76 1 0.899978 0.0253539 0.0271649 1.00716 -3.27898 0.0925293 0.390417 -0.646813
75 1 0.926594 0.00274274 0.0264461 0.675699 -3.25185 0.224624 -0.154627 -0.0516269
1673 1 0.901325 -0.000878645 0.0487346 1.1286 -3.28476 -0.440362 0.465337 0.640428
73 1 0.902349 0.999956 0.00347796 0.760101 -3.29292 -0.281256 0.144095 0.0291722
80 1 0.95239 0.0260726 0.0283332 0.784023 -3.27272 0.203599 0.11481 -0.182373
79 1 0.978566 0.0019298 0.0293569 0.711015 -3.31374 0.740854 0.331475 -0.041726
159 1 0.973014 0.0522418 0.0278036 2.16719 -3.30096 0.568151 0.09475 -0.148068
1678 1 0.977872 0.0276754 0.0532815 0.721761 -3.30679 -0.198053 -0.0199249 -0.0641357
78 1 0.97935 0.0272437 0.00381038 0.49434 -3.3036 -0.167184 0.064402 -0.135451
88 1 0.0494214 0.0775481 0.0276426 0.98918 -3.25952 0.464571 -0.0300158 -0.181975
1682 1 0.0275083 0.0791603 0.0529232 1.9648 -3.24144 0.166016 -0.892432 -0.0417708
81 1 1.00308 0.0524541 0.00354805 0.579758 -3.27209 -0.495947 -0.445284 -0.313709
165 1 0.0502521 0.102631 0.00297519 0.736134 -3.21575 0.389812 -0.563161 -0.296253
85 1 0.0526384 0.053854 0.00183272 5.72195 -3.29899 0.219465 -0.287851 0.116236
87 1 0.0767116 0.0546367 0.0293092 6.63 -3.26657 -0.151017 -0.523564 -0.470613
92 1 0.102199 0.0763503 0.0287026 5.92001 -3.26408 0.414747 0.435056 -0.0996289
1689 1 0.102641 0.0527189 0.0525182 6.31115 -3.22335 0.0575128 0.45877 0.278934
96 1 0.145679 0.0751671 0.0234349 5.10821 -3.29156 -0.373443 0.0925401 0.0534283
1690 1 0.128527 0.0760964 0.0528869 5.49277 -3.2922 0.184082 0.323797 -0.12753
95 1 0.169528 0.0487115 0.0244565 1.4541 -3.27986 0.173251 0.590007 -0.107136
99 1 0.221829 0.0502189 0.0251677 0.53423 -3.26694 0.448147 -0.0346842 -0.39242
100 1 0.199611 0.0753621 0.022641 1.15834 -3.30898 -0.62164 0.0704269 0.600342
179 1 0.224316 0.101134 0.024423 0.256439 -3.34798 0.104276 -0.120652 0.281278
103 1 0.276087 0.0488454 0.0250376 0.70929 -3.28163 -0.230607 0.306486 -0.0231359
104 1 0.249461 0.0735513 0.0244471 0.558362 -3.39352 0.110981 0.241984 -0.0536364
102 1 0.275467 0.0747186 -0.00182544 0.66082 -3.26966 -0.160885 -0.203532 0.42049
107 1 0.32684 0.0500237 0.0243473 0.413757 -3.33533 -0.146708 -0.289841 -0.0681544
108 1 0.2996 0.0749723 0.0229068 0.967716 -3.30306 0.248923 -0.224722 0.312978
112 1 0.34991 0.0748721 0.0269726 1.27426 -3.26814 -0.00483506 0.0893576 -0.474161
105 1 0.299752 0.0494515 1.00111 0.781142 -3.32849 0.242814 -0.0917 -0.357936
106 1 0.327527 0.0744773 0.999017 1.01288 -3.34565 -0.348835 0.182815 0.334409
116 1 0.401776 0.07588 0.0237792 0.684133 -3.28549 -0.127281 -0.122218 0.207143
191 1 0.374986 0.098871 0.0255722 0.909902 -3.29868 0.159959 0.449168 -0.461
110 1 0.374378 0.0766731 -0.000286004 0.657665 -3.31054 -0.00428134 -0.330529 0.126396
120 1 0.450258 0.0765959 0.0241768 0.268244 -3.2682 -0.568998 -0.145875 0.0299063
195 1 0.424755 0.102758 0.0224108 0.802022 -3.29175 -0.0341045 -0.437534 -0.0332005
1714 1 0.424839 0.0747463 0.0500081 0.668612 -3.30441 0.336044 -0.178587 -0.114368
114 1 0.42518 0.0778924 1.0003 1.58679 -3.23755 0.208209 -0.260862 -0.272947
123 1 0.523804 0.0516534 0.0214773 1.17996 -3.32701 0.41834 -0.550683 0.0607214
124 1 0.500538 0.0761395 0.0243783 0.508198 -3.27843 -0.255757 0.0384648 -0.178642
122 1 0.523441 0.0761262 0.996759 1.123 -3.29582 0.301598 -0.292567 0.279681
203 1 0.525528 0.0992414 0.0237472 0.561768 -3.25548 -0.0157313 0.13119 0.106546
1722 1 0.526869 0.0747788 0.0485622 0.873608 -3.27443 -0.40961 0.240304 0.0801012
1721 1 0.501222 0.0507651 0.0480473 0.601112 -3.23108 0.153206 0.174217 0.000434126
121 1 0.499094 0.0516782 0.997356 0.651128 -3.32446 -0.098387 -0.527643 0.248986
201 1 0.500678 0.100723 0.999377 0.541734 -3.26927 -0.338918 0.0784064 0.00246071
1725 1 0.552134 0.0521011 0.0476424 1.74497 -3.20099 -0.718048 -0.989176 0.148448
127 1 0.574646 0.0504183 0.0228285 0.739585 -3.28452 0.174321 -0.169259 -0.029259
128 1 0.549827 0.074574 0.0237241 0.456701 -3.25541 -0.0106033 -0.0123842 -0.420106
1726 1 0.573628 0.0755709 0.0489595 0.432091 -3.28009 0.709341 0.264433 0.128508
207 1 0.574078 0.0990418 0.024325 0.675726 -3.29908 0.34539 0.269164 0.0521863
126 1 0.576325 0.0763521 0.998808 0.610486 -3.32597 0.362625 -0.297464 -0.0921972
131 1 0.622132 0.0499643 0.0242316 1.44749 -3.24433 0.925811 -0.449487 0.261584
132 1 0.601203 0.0739076 0.0245328 0.713336 -3.28067 -0.429311 0.6306 0.153825
1730 1 0.627151 0.0748491 0.0508951 0.997268 -3.31087 -0.61118 -0.430224 0.0441252
211 1 0.625494 0.0997853 0.0260598 0.618808 -3.20371 0.0887973 -0.336218 -0.170756
1809 1 0.600113 0.0993922 0.0482777 0.635125 -3.30137 -0.0161413 0.0850181 0.205632
1729 1 0.599348 0.0480898 0.0503238 1.32915 -3.34459 -0.133024 0.746624 -0.0567506
135 1 0.673987 0.0505917 0.0247263 0.301375 -3.29783 -0.0251366 -0.165457 -0.220999
136 1 0.649077 0.0740387 0.0249428 0.490319 -3.29193 -0.0445223 -0.19649 -0.0465693
140 1 0.697821 0.0757242 0.025408 0.804243 -3.30162 0.188397 -0.149617 0.0440771
134 1 0.675304 0.0750189 -0.000294542 0.197964 -3.31811 -0.24239 -0.0920166 0.0906594
215 1 0.671715 0.0992596 0.0257174 1.41221 -3.25744 0.287919 0.339196 -0.292716
1733 1 0.650682 0.0495845 0.0515646 0.594787 -3.28153 -0.54897 -0.126159 -0.655202
1737 1 0.698494 0.0499589 0.0487736 0.952329 -3.2928 0.267089 -0.176587 0.349101
1734 1 0.674197 0.074536 0.0510288 0.443272 -3.29186 -0.0868991 0.289207 -0.0400562
139 1 0.724023 0.0509689 0.02517 0.560352 -3.27899 0.0823284 -0.102342 0.060217
141 1 0.748908 0.050848 0.000916956 0.54496 -3.28226 0.553357 -0.294299 0.22972
144 1 0.750264 0.0748631 0.0246317 0.230877 -3.25551 0.103505 -0.117322 0.0636652
148 1 0.803733 0.0736941 0.0253652 5.72248 -3.28623 -0.511415 0.455227 -0.189541
145 1 0.801637 0.0495178 0.00178009 0.819122 -3.3386 0.0183654 0.229332 -0.196269
1745 1 0.799164 0.0506344 0.0524793 1.07076 -3.30026 0.138741 -0.0458086 -0.34083
151 1 0.872659 0.0529229 0.0231046 3.68087 -3.20332 1.1266 -0.762763 0.375915
152 1 0.847172 0.0747855 0.0257012 6.4802 -3.2039 0.0241535 0.438149 -0.351043
146 1 0.824788 0.0768699 0.998366 1.53738 -3.31505 0.335062 -0.309804 0.122681
150 1 0.874155 0.0752578 1.00138 1.0584 -3.31695 0.273959 0.410303 -0.448974
1750 1 0.875504 0.0762663 0.0476325 1.94707 -3.21169 -0.185972 -0.374944 0.52963
155 1 0.928454 0.0509988 0.024683 1.12245 -3.3206 -0.18528 0.11486 0.164574
156 1 0.904064 0.076962 0.0248074 2.13774 -3.32507 -0.280158 -0.267275 -0.15036
1754 1 0.926883 0.0748508 0.0503224 5.79111 -3.23271 -0.560879 0.29005 0.519036
154 1 0.92584 0.0760947 0.998879 0.934716 -3.28617 0.235364 0.0855025 0.225185
84 1 -0.000120974 0.0759322 0.0276465 0.798059 -3.32726 0.308527 -0.036984 0.318639
160 1 0.950063 0.0777001 0.0258079 0.600143 -3.28674 0.0600294 0.0357064 -0.314186
158 1 0.978043 0.0769008 1.00224 0.6133 -3.29008 -0.278333 0.0836626 -0.26251
157 1 0.954121 0.0523348 -1.42095e-05 1.52817 -3.29747 -0.450436 -0.00844577 0.195747
163 1 0.0252257 0.100335 0.0268957 0.40132 -3.21555 -0.404005 0.0932729 0.621238
168 1 0.0485272 0.123987 0.025397 1.83734 -3.30376 0.53787 0.905518 0.518724
162 1 0.0228938 0.122826 0.00135724 6.44853 -3.11377 0.174887 1.3996 0.0746112
1845 1 0.0535394 0.150514 0.0498863 1.38442 -3.26861 -0.508078 -0.0494122 0.587517
1762 1 0.0256047 0.12498 0.0521279 0.41721 -3.38532 0.0708246 0.112488 -0.0015547
167 1 0.0774537 0.101329 0.0254062 1.12723 -3.33748 0.0487873 0.279243 0.483095
172 1 0.1013 0.126893 0.0268088 0.733473 -3.24662 -0.501943 0.0784459 -0.203668
1766 1 0.0770945 0.125793 0.0509474 0.402738 -3.2883 -0.0346986 -0.0542046 -0.0521271
247 1 0.0738778 0.151673 0.025235 0.957097 -3.25946 0.0913046 -0.173536 -0.079563
249 1 0.0999532 0.150709 0.00303746 1.18422 -3.16031 0.311907 0.652156 -0.302335
175 1 0.173222 0.100127 0.0235486 0.801523 -3.35667 0.177015 0.0861606 0.293173
171 1 0.123994 0.102951 0.0277832 6.32799 -3.30311 0.444136 -0.432974 -0.33096
176 1 0.151313 0.127269 0.0249295 1.0131 -3.34676 0.0086819 -0.221989 0.204975
1774 1 0.17808 0.125934 0.0491513 1.78065 -3.20707 -0.34747 0.181502 0.305699
1773 1 0.151329 0.104611 0.0506539 6.65386 -3.24755 -0.0748087 -0.646706 -0.168982
1770 1 0.124126 0.125096 0.0526928 1.39028 -3.25851 -0.148263 0.259704 0.043503
170 1 0.123581 0.1259 0.00186321 1.06903 -3.15932 0.483108 0.504087 0.140328
1777 1 0.198006 0.0996458 0.0499641 1.18505 -3.28825 0.235343 -0.0230123 -0.683924
180 1 0.198772 0.127495 0.0244285 1.1276 -3.28451 0.274792 -0.377053 -0.015468
1778 1 0.225074 0.126374 0.0491161 0.571858 -3.32252 -0.37163 -0.243891 0.0378256
259 1 0.226628 0.150218 0.0259649 0.607485 -3.28606 -0.499153 0.399637 0.116685
178 1 0.225768 0.1245 1.00192 0.762647 -3.28101 0.119488 0.1299 -0.208734
183 1 0.275291 0.0997349 0.0252985 0.400389 -3.33179 -0.185509 0.114433 -0.0519632
184 1 0.252455 0.126507 0.0265018 1.25522 -3.31408 0.00825964 -0.283168 -0.10152
263 1 0.277341 0.150996 0.0286237 2.67476 -3.24936 -0.407212 -0.239583 -0.544632
1782 1 0.279666 0.12604 0.0498258 1.84017 -3.31332 -0.208869 -0.0835305 -0.126058
182 1 0.273588 0.123645 0.999109 1.14641 -3.29733 0.108807 0.18022 0.220201
181 1 0.250583 0.0987274 1.00014 0.497728 -3.28232 -0.287495 0.0729557 0.00138848
261 1 0.24913 0.150921 0.00205882 0.882579 -3.28549 0.448074 -0.300369 -0.308002
187 1 0.324485 0.0993434 0.0252522 0.511339 -3.29445 0.299273 -0.207023 -0.283829
188 1 0.301402 0.125106 0.023288 1.07138 -3.32564 -0.139132 0.0328798 0.0181006
1786 1 0.324461 0.122333 0.0500979 5.73851 -3.22807 0.105999 0.244994 -0.152964
185 1 0.299792 0.0992933 1.00004 0.327992 -3.30383 0.0285384 -0.0682837 -0.0789128
186 1 0.325712 0.123576 0.998251 1.0902 -3.20724 -0.261029 0.675528 0.415665
269 1 0.351077 0.149916 -0.000684836 1.00193 -3.2243 -0.751166 -0.0053673 0.0356303
192 1 0.346211 0.125427 0.0243144 2.14798 -3.30752 0.519225 -0.148648 0.00996154
196 1 0.400193 0.127031 0.0240928 0.551158 -3.33419 -0.0336243 -0.0225996 0.0925941
271 1 0.372308 0.149995 0.025731 1.02381 -3.23933 0.717166 -0.361706 -0.469228
189 1 0.351088 0.10176 0.000346801 1.00982 -3.19779 -0.186992 -0.669697 0.354283
1797 1 0.450201 0.100554 0.048645 0.252683 -3.33905 0.0468222 0.109978 -0.08931
200 1 0.448966 0.125932 0.0237399 0.656667 -3.25559 0.546432 0.304196 -0.085333
1794 1 0.425647 0.125604 0.0477971 0.494598 -3.27982 -0.218973 0.401489 0.244419
197 1 0.447861 0.102179 0.995879 2.7885 -3.20442 0.5041 0.0279865 0.906804
199 1 0.473826 0.101822 0.0237533 0.604114 -3.32572 0.0461693 -0.0463461 -0.221027
1801 1 0.498735 0.0990348 0.0489068 0.848928 -3.32259 0.131839 0.310469 -0.138156
204 1 0.501607 0.123615 0.0232161 1.35512 -3.28047 -0.227897 0.258645 -0.13047
198 1 0.473972 0.126462 -0.00183666 0.780826 -3.23525 -0.05653 -0.555326 0.528497
279 1 0.477858 0.148993 0.0233714 5.51177 -3.31846 -0.288081 0.245773 -0.0742443
281 1 0.500216 0.147646 0.997205 1.93088 -3.30739 0.504441 0.67389 0.0719254
1802 1 0.522236 0.125091 0.0492458 0.990002 -3.23372 0.149465 -0.470635 0.00311534
202 1 0.526896 0.123537 0.999216 1.40635 -3.24797 -0.152584 0.373933 -0.123149
1805 1 0.549184 0.100991 0.0480617 0.623005 -3.27609 0.173095 0.0356061 0.104725
208 1 0.54788 0.126099 0.0250329 1.07986 -3.30437 0.0237091 -0.0789104 0.105441
1806 1 0.57497 0.125078 0.0476595 0.579653 -3.30942 0.00513186 0.0218682 0.0957859
287 1 0.57484 0.149736 0.0235249 0.766941 -3.28621 -0.236103 0.111911 0.760952
205 1 0.55029 0.0983632 0.999987 0.766476 -3.25074 0.0205724 0.304849 -0.482804
212 1 0.602004 0.124851 0.0244782 0.929474 -3.25007 -0.0486169 -0.0923907 0.346291
1889 1 0.601904 0.147406 0.0479244 2.15461 -3.29115 -0.439086 0.756337 0.457057
291 1 0.626183 0.149404 0.0247333 0.761196 -3.27533 -0.119663 0.7447 -0.138757
216 1 0.646848 0.12437 0.0221087 6.92056 -3.2112 1.05537 0.0830674 0.791586
220 1 0.700454 0.123746 0.023619 0.529924 -3.28636 -0.0268118 0.165118 0.42935
214 1 0.677086 0.127541 0.999669 3.07349 -3.2728 -0.607454 -0.739606 -0.123918
1893 1 0.649761 0.15013 0.0508155 0.921281 -3.30604 0.254582 0.0307599 0.00992529
1814 1 0.672966 0.124358 0.0488651 1.04072 -3.3192 0.000328722 -0.0931424 -0.0729424
1813 1 0.649398 0.0993704 0.050526 0.361569 -3.2034 0.394947 0.210534 0.192908
297 1 0.700102 0.150418 0.995623 2.05335 -3.25884 0.309801 0.0961227 0.482102
219 1 0.7255 0.0993974 0.0239467 0.466435 -3.25628 -0.0215572 0.0246828 0.431523
221 1 0.750234 0.0973093 0.000505763 1.10997 -3.24835 -0.0341228 0.5155 -0.0662329
224 1 0.751084 0.124955 0.0253196 0.768964 -3.25725 -0.051563 -0.641885 0.285757
1818 1 0.72465 0.122673 0.0506856 1.78139 -3.22085 0.802109 0.326252 -0.789493
299 1 0.727242 0.148791 0.0225132 1.08534 -3.31209 -0.711691 0.229738 0.421264
218 1 0.726993 0.123955 1.00107 1.27629 -3.30946 -0.312228 -0.0513925 -0.598044
223 1 0.777534 0.0986104 0.0234251 1.0308 -3.35571 0.150376 0.223745 0.28784
228 1 0.802492 0.125969 0.0238987 1.0996 -3.32753 -0.606574 -0.181778 -0.120152
303 1 0.772837 0.149627 0.0234773 1.30451 -3.24185 0.626132 0.0842649 -0.031594
225 1 0.800089 0.100178 0.997319 0.893128 -3.25825 0.035914 0.071957 0.413417
231 1 0.874346 0.0979801 0.0265333 1.80342 -3.28021 -0.348455 0.73498 -0.775756
227 1 0.826418 0.101013 0.0247719 0.595766 -3.25796 -0.586587 -0.247614 -0.179483
229 1 0.849907 0.101416 -0.000304474 0.488618 -3.27349 0.297514 -0.424208 0.253016
232 1 0.849635 0.125065 0.0264498 0.854551 -3.24826 0.46629 -0.0686076 -0.427889
230 1 0.873832 0.1259 1.00087 0.6722 -3.29101 0.227719 -0.310329 0.0800158
226 1 0.825965 0.124535 0.99674 1.60517 -3.27209 -0.269798 0.386915 0.667118
235 1 0.926887 0.103642 0.0234774 2.17671 -3.26594 -0.248509 -0.181754 0.434806
236 1 0.899557 0.124952 0.025257 0.518543 -3.26973 -0.57536 0.0203278 -0.117439
233 1 0.900483 0.100522 0.999617 0.3433 -3.34619 -0.275551 -0.0422243 0.165599
164 1 1.0003 0.126243 0.0277429 1.1376 -3.32334 -0.13106 -0.0998884 -0.167691
239 1 0.97595 0.101143 0.0275666 0.361272 -3.31945 -0.0887223 -0.0482208 -0.194398
240 1 0.953775 0.127565 0.0252725 2.90261 -3.22542 -0.676959 -0.00726095 -0.585765
238 1 0.976776 0.126291 -1.34258e-05 0.541708 -3.30715 0.627744 -0.0359188 0.168841
1761 1 1.00052 0.0981433 0.053907 2.66984 -3.2173 -0.503506 1.05136 -0.823449
1838 1 0.972738 0.124951 0.0501221 1.39872 -3.19673 0.86793 -0.166021 0.570128
243 1 0.0250464 0.150822 0.0286439 2.17804 -3.31891 -0.0592407 -0.210281 -0.405352
248 1 0.0497984 0.176898 0.0273177 2.08187 -3.23644 -0.152669 -0.443672 -0.887642
244 1 0.00225794 0.17697 0.0261151 1.38613 -3.24089 0.122145 -0.314892 -0.387462
245 1 0.0469252 0.151294 0.000988319 6.23665 -3.31416 -0.302663 -0.100396 0.212918
1849 1 0.101359 0.150571 0.0487821 0.78756 -3.32668 -0.0859355 0.293983 0.411788
252 1 0.10275 0.176175 0.0240719 1.00851 -3.32962 0.0791377 -0.0540249 0.332825
251 1 0.126928 0.151089 0.024266 0.834281 -3.28949 0.213547 0.231685 0.400665
255 1 0.175709 0.153385 0.0266107 2.3174 -3.25495 -0.344318 -0.354145 -0.643602
256 1 0.150059 0.177216 0.0227994 5.56194 -3.24974 0.204651 -0.114211 0.239841
331 1 0.127894 0.2029 0.023274 2.01036 -3.28817 -0.158455 -0.0239048 -0.223391
1853 1 0.150794 0.14807 0.0514375 1.99084 -3.29171 0.265888 0.154127 -0.235758
1850 1 0.127714 0.174089 0.0506792 6.13042 -3.25351 0.14432 -0.313706 -0.436833
335 1 0.175072 0.202326 0.0255996 0.998195 -3.28818 0.16056 0.0426507 -0.30759
260 1 0.200688 0.177597 0.0258824 0.601471 -3.3003 0.0361365 -0.288803 -0.156206
1857 1 0.198796 0.152706 0.0503935 1.6267 -3.24856 0.567049 -0.202967 -0.101832
1854 1 0.172561 0.176623 0.0484453 5.72523 -3.28564 0.182155 0.0540273 0.408295
1858 1 0.227453 0.175007 0.0496642 0.6634 -3.3087 -0.390739 0.423384 0.132548
257 1 0.200951 0.149583 0.000512491 0.677644 -3.24139 -0.311113 0.343355 0.727132
264 1 0.253077 0.176812 0.0266789 0.786946 -3.31142 0.205208 -0.0550286 -0.209617
262 1 0.273698 0.173663 -0.001443 5.92852 -3.28764 -0.0307792 -0.0784442 0.101017
343 1 0.281481 0.200814 0.0262034 7.64248 -3.28583 -0.372603 0.514602 0.142274
267 1 0.325535 0.152096 0.0217579 6.90134 -3.22083 -0.0283553 -0.242974 -0.0979565
268 1 0.300134 0.174743 0.0258672 5.2646 -3.12852 -0.19663 -0.420919 -0.0238702
1866 1 0.331408 0.174667 0.0503413 7.80348 -3.23906 -0.814978 0.0914782 -0.0429664
272 1 0.351042 0.175421 0.0226363 1.91864 -3.10753 -0.99875 0.0142841 0.315802
349 1 0.347825 0.1984 0.999773 0.772274 -3.29517 -0.229422 0.14095 -0.426414
1865 1 0.306611 0.1508 0.0481264 6.63898 -3.28627 -0.290582 -0.125566 0.50507
266 1 0.320827 0.176255 0.998682 1.59611 -3.34479 0.11703 -0.408487 -0.17719
265 1 0.297845 0.148755 6.93017e-05 1.47371 -3.30777 0.180465 0.11453 -0.0636429
273 1 0.399962 0.150885 0.000206329 0.156389 -3.3274 -0.0782956 0.0727548 0.110324
276 1 0.398742 0.175161 0.0254215 0.417742 -3.33024 -0.0784681 0.0365902 -0.122223
351 1 0.372761 0.199831 0.0236692 0.304908 -3.26449 0.579928 0.231841 0.00111153
270 1 0.373755 0.174312 1.00036 0.382104 -3.24065 0.82702 0.308576 -0.755744
275 1 0.426492 0.152129 0.02601 1.02537 -3.33861 -0.228311 -0.0173101 -0.184411
280 1 0.45136 0.176934 0.0245626 0.467306 -3.31468 -0.217759 -0.085885 -0.413924
274 1 0.423444 0.177018 0.999714 0.619969 -3.32667 0.426384 -0.327226 0.135198
1877 1 0.453893 0.151197 0.0486386 1.40779 -3.31069 -0.514458 0.00505407 -0.0940083
283 1 0.523327 0.151747 0.0244004 1.22895 -3.29025 -0.0159908 -0.345148 -0.293259
278 1 0.477248 0.175632 0.99922 0.458158 -3.25106 -0.424785 -0.399935 -0.355796
284 1 0.499272 0.176076 0.0232121 0.472025 -3.22787 0.254325 -0.0717062 0.584749
363 1 0.523652 0.202854 0.0241381 0.841993 -3.18529 0.670562 -0.648776 0.370597
1881 1 0.500581 0.151226 0.0493453 0.263489 -3.20747 -0.252832 0.257981 -0.0678687
282 1 0.524711 0.175034 -0.00096447 0.596679 -3.26542 -0.066423 -0.140516 0.206816
288 1 0.549537 0.174283 0.0248139 0.622816 -3.30723 -0.0199936 0.28257 -0.0930265
367 1 0.572939 0.199755 0.0251967 0.658858 -3.30861 -0.13035 0.220414 -0.100951
1885 1 0.546118 0.147819 0.0507426 2.57399 -3.28207 0.605787 0.696753 -0.310732
292 1 0.59859 0.175723 0.02488 0.857833 -3.32499 0.0780568 -0.467773 -0.147022
1890 1 0.626057 0.1747 0.0490483 0.228466 -3.28729 -0.0882871 -0.123274 0.0275796
1973 1 0.651677 0.199327 0.0483049 0.397667 -3.31278 -0.269636 -0.115465 0.293454
295 1 0.674173 0.148763 0.0251639 1.149 -3.3065 -0.265346 -0.236599 -0.220514
296 1 0.651008 0.175194 0.0243541 0.25067 -3.32536 0.139092 -0.419369 -0.120165
300 1 0.69785 0.172335 0.0225242 1.40517 -3.31178 0.807581 0.417856 0.098238
375 1 0.675122 0.20042 0.0242553 0.539948 -3.26058 0.307497 -0.174979 -0.289717
1894 1 0.678235 0.173012 0.049401 1.7201 -3.3059 -0.428545 -0.0100963 0.100235
301 1 0.750477 0.149572 0.998561 0.36908 -3.25714 0.16706 0.0231775 -0.424693
304 1 0.748971 0.174623 0.0234735 0.313162 -3.29274 0.0586775 0.0305386 -0.21406
1898 1 0.723785 0.171906 0.0480047 1.53156 -3.32105 -0.299226 0.15905 -0.0617661
298 1 0.723948 0.174617 0.996957 0.667197 -3.28676 0.1513 -0.134767 0.355427
381 1 0.748965 0.198273 0.998559 0.790337 -3.25413 0.398487 0.236023 -0.244043
305 1 0.80151 0.149473 1.00042 1.23387 -3.27075 -0.265185 -0.0599667 0.309692
383 1 0.772721 0.199322 0.0224955 0.421091 -3.32027 0.341673 -0.0839925 0.401013
308 1 0.799533 0.173334 0.0248769 0.901805 -3.30965 0.0638815 0.531677 -0.283143
302 1 0.776909 0.174864 0.998172 0.909162 -3.33541 0.00108934 0.0491074 0.34788
309 1 0.851879 0.150845 -0.00100532 1.23194 -3.2084 -1.07634 -0.211747 0.578333
311 1 0.875644 0.150634 0.0261879 0.46141 -3.33457 -0.20524 -0.312871 0.0228728
307 1 0.827906 0.149475 0.0253259 1.58366 -3.26373 -0.317437 0.411133 -0.17892
312 1 0.851165 0.174572 0.025488 0.51524 -3.29886 -0.0799844 0.270884 -0.00857647
306 1 0.825238 0.175249 0.00107867 0.688899 -3.34786 -0.123437 0.103695 -0.18564
315 1 0.924876 0.149444 0.023009 1.65794 -3.24456 0.246503 -0.0473739 0.680371
316 1 0.902008 0.173383 0.0239463 2.30102 -3.19684 -0.77794 0.0377765 0.260691
313 1 0.900045 0.1503 0.999585 0.35243 -3.22957 -0.212661 0.088537 -0.13676
1913 1 0.901676 0.151475 0.0510783 0.835848 -3.30955 -0.175691 0.154176 -0.0550987
1914 1 0.923533 0.177889 0.04935 1.45881 -3.25049 -0.00464583 -0.316144 -0.281131
319 1 0.977597 0.153655 0.0225037 3.31486 -3.28233 -0.0942131 -0.431599 0.475761
320 1 0.948481 0.177293 0.0244131 0.868982 -3.36792 -0.00176277 -0.360082 -0.299582
1841 1 0.996852 0.150043 0.0520431 2.46412 -3.32962 0.444502 0.0235697 -0.37498
1917 1 0.950409 0.151395 0.0485193 0.744472 -3.38151 -0.267974 0.0953297 -0.126204
1918 1 0.975402 0.176694 0.0486513 0.516398 -3.28856 -0.227514 -0.159639 -0.207885
323 1 0.0250923 0.201399 0.0223313 1.38132 -3.29481 0.506761 0.247122 0.219955
321 1 1.00101 0.200899 0.99895 0.439547 -3.30022 -0.169889 0.306999 -0.283141
328 1 0.05252 0.226768 0.024841 0.851138 -3.32952 -0.315741 -0.332116 -0.16823
324 1 0.00127931 0.226206 0.0230762 0.419654 -3.31534 -0.24212 -0.000638624 0.156086
1922 1 0.0253112 0.224747 0.0497105 0.387774 -3.27041 0.0301896 0.191247 -0.438912
1925 1 0.0484052 0.199764 0.0480634 1.95853 -3.22509 0.0672295 0.507261 0.44156
327 1 0.0765025 0.199661 0.027931 2.6613 -3.27056 0.16211 0.260896 -0.875989
332 1 0.100698 0.225687 0.0249946 0.647341 -3.33801 0.037915 -0.0671814 -0.273207
1926 1 0.0759377 0.223752 0.0488628 1.04623 -3.25521 0.20835 0.462104 0.124635
329 1 0.0995174 0.199604 0.000511836 1.807 -3.34821 0.033973 0.471101 -0.0147078
326 1 0.0761421 0.225344 0.99805 1.13347 -3.2489 0.368141 0.193836 0.175069
336 1 0.152553 0.22794 0.0263299 1.31576 -3.26448 -0.233535 -0.253664 -0.382085
1930 1 0.124941 0.225977 0.0505677 1.14086 -3.27125 0.492653 0.153354 -0.685146
330 1 0.127578 0.225812 1.00025 0.620641 -3.32038 -0.0522286 -0.170089 0.16318
1933 1 0.14929 0.200884 0.048803 0.814253 -3.28698 0.0259154 0.286111 0.422298
334 1 0.1785 0.227639 -0.00095869 1.17977 -3.29831 -0.209631 -0.181248 0.172318
339 1 0.226729 0.199986 0.0249697 1.25482 -3.27494 0.429678 0.52449 0.475357
1937 1 0.200168 0.202313 0.0496011 0.713475 -3.32356 0.267709 -0.463816 -0.035405
340 1 0.202814 0.225872 0.0230251 1.2045 -3.2768 0.063685 0.0763345 0.637962
338 1 0.231838 0.226586 0.00241269 0.852699 -3.2278 -0.177085 0.0392144 -0.303779
1934 1 0.176146 0.226666 0.0508242 0.498337 -3.30349 0.292403 -0.0878636 0.0787748
1938 1 0.225172 0.226525 0.0499764 0.980363 -3.27365 0.188879 -0.151761 -0.247315
344 1 0.252642 0.227225 0.0277221 1.68618 -3.27411 0.726578 -0.493014 0.025096
1942 1 0.280907 0.223098 0.0505669 2.2821 -3.23261 -0.740316 0.768356 0.0791797
342 1 0.284593 0.232318 0.00169064 7.15426 -3.21406 -0.233593 -0.577441 0.220244
1941 1 0.252724 0.201438 0.0514092 0.709429 -3.34012 -0.171726 -0.245908 -0.4309
1949 1 0.349305 0.200412 0.0489233 0.773728 -3.24336 -0.0123392 0.00467709 0.193621
345 1 0.292073 0.199747 0.995264 8.72538 -3.12597 0.626773 0.0755056 0.451351
347 1 0.321767 0.197746 0.0232714 6.20715 -3.27724 0.297142 0.725782 0.148122
348 1 0.306316 0.228538 0.0277317 6.1863 -3.22836 -0.236699 -0.0865061 -0.856136
352 1 0.345788 0.223816 0.0229228 5.57347 -3.24158 -0.724429 -0.57745 -0.140544
346 1 0.317737 0.22119 0.996631 6.81739 -3.29992 0.940396 0.448016 0.163034
356 1 0.396479 0.225382 0.0231372 0.421991 -3.30875 0.319967 -0.0216476 -0.108543
350 1 0.370234 0.223332 0.998407 0.317726 -3.26344 0.49091 -0.247469 -0.220956
353 1 0.398598 0.200617 -0.00180273 0.636359 -3.24875 -0.172402 -0.108629 0.71581
355 1 0.42238 0.201077 0.0233659 0.727932 -3.35103 0.48469 0.0107945 0.162452
360 1 0.450113 0.226252 0.0235817 0.232578 -3.34583 -0.172576 -0.220445 0.0284273
354 1 0.423922 0.226373 1.00011 0.85241 -3.33497 0.110318 -0.34846 -0.293905
437 1 0.449147 0.251067 0.998776 0.355157 -3.2747 0.18854 -0.519359 -0.276732
359 1 0.476621 0.201818 0.0251784 0.509194 -3.24887 -0.295646 0.174472 -0.248221
364 1 0.501354 0.225937 0.022953 0.947731 -3.26841 -0.435877 0.798513 0.23226
1962 1 0.52359 0.227307 0.0509716 1.01355 -3.28608 0.0924146 -0.239567 -0.495505
358 1 0.476211 0.227337 -0.00116336 0.403132 -3.34594 -0.0762791 0.00578033 -0.0159575
368 1 0.548951 0.227646 0.0231316 1.09987 -3.31032 0.00464718 -0.396534 0.31543
1966 1 0.574615 0.223806 0.0494981 0.566795 -3.27702 0.018259 0.0388005 -0.430889
2045 1 0.550149 0.251136 0.049925 0.189776 -3.27995 0.202077 -0.188714 -0.315766
371 1 0.626421 0.198544 0.0228341 0.878685 -3.29973 -0.308394 0.202623 0.0867335
372 1 0.59948 0.224214 0.0243996 0.40556 -3.22771 0.323446 -0.218749 0.386196
1970 1 0.623995 0.223867 0.0483169 0.284226 -3.30465 -0.244911 -0.0931667 0.0415107
2049 1 0.598317 0.249444 0.0485552 0.425417 -3.28212 0.552343 -0.00372216 0.0945024
376 1 0.649033 0.224452 0.0240743 0.278138 -3.26793 -0.404555 -0.158842 -0.248132
380 1 0.700335 0.225804 0.0227519 0.846682 -3.28448 0.00948856 -0.375304 -0.0589433
455 1 0.672803 0.247114 0.0253506 2.11605 -3.25482 0.435943 0.73354 -0.647148
1974 1 0.675854 0.223714 0.047991 0.629951 -3.28808 0.0447211 0.270633 0.248644
2057 1 0.701622 0.249217 0.0474337 4.96221 -3.29656 0.293904 0.00265006 -0.152786
1977 1 0.699295 0.199041 0.0485808 0.52593 -3.25495 0.0121978 -0.475359 -0.106487
379 1 0.724623 0.200488 0.0223524 0.938401 -3.27637 -0.500694 -0.544928 0.0992663
384 1 0.747968 0.224628 0.0219901 0.486381 -3.25992 0.115525 -0.102484 0.125767
2061 1 0.744217 0.248772 0.0498426 6.30234 -3.28392 0.0448321 0.192115 -0.558364
1978 1 0.723426 0.221547 0.0483631 5.66373 -3.1984 0.51472 0.406002 -0.600785