ITEM: TIMESTEP
14000
ITEM: NUMBER OF ATOMS
32000
ITEM: BOX BOUNDS pp pp pp
5.5494757746309453e+00 7.5450524225369108e+01
-2.6562462239059030e+00 8.3656246223905924e+01
-4.2965341521615912e+00 8.5296534152160589e+01
ITEM: ATOMS id type xs ys zs c_csym c_peratom fx fy fz
4 1 0.014561 0.0396767 0.0290723 6.98091 -3.32924 -0.0561011 -0.244339 -0.285077
3 1 0.028668 0.00743041 0.0221246 0.405068 -3.27509 -0.637831 0.396927 0.187056
8 1 0.0525974 0.0335523 0.0247114 0.854072 -3.27516 0.200088 -0.477915 0.0217588
1605 1 0.0533122 0.00619408 0.0478106 0.870231 -3.30549 -0.0528693 0.377294 0.049288
12 1 0.091574 0.0241068 0.0188225 1.18147 -3.26494 -0.673011 0.33168 0.0128097
7 1 0.0646033 0.999147 0.0189916 1.42766 -3.20847 1.0492 0.595016 0.0201748
1609 1 0.0932831 0.00157941 0.0418388 1.04114 -3.28365 -0.441275 0.159041 0.408492
1606 1 0.0780923 0.0318573 0.0498357 0.816666 -3.32538 -0.170035 -0.024891 0.118024
1610 1 0.116477 0.0280684 0.0428502 1.06495 -3.24441 0.399928 -0.22959 0.879105
16 1 0.128355 0.021393 0.0162471 2.35505 -3.15925 0.977604 -0.348175 -0.893741
1614 1 0.156807 0.0207038 0.0377808 0.813398 -3.29993 0.0558806 0.159761 0.670648
95 1 0.155679 0.0452788 0.0154595 1.05945 -3.31134 0.27011 0.179053 -0.529185
20 1 0.170807 0.016209 0.0100707 6.71894 -3.21575 -0.102299 -0.836087 0.151773
99 1 0.198288 0.0385606 0.00907556 7.83156 -3.31729 0.160165 0.264681 0.165702
24 1 0.22952 0.014021 0.0133777 0.961166 -3.30752 -0.641682 0.076191 0.0119613
1618 1 0.196769 0.0149841 0.0339356 6.91142 -3.34596 0.175406 -0.160417 -0.0470379
1701 1 0.225029 0.0399897 0.0360441 7.18618 -3.31776 -0.504394 -0.0806878 -0.574222
1697 1 0.184527 0.0454971 0.0385056 0.67241 -3.28743 0.0527079 0.0251982 0.0867375
103 1 0.257141 0.0382583 0.0155203 1.89442 -3.30951 -0.244117 0.201822 0.30023
28 1 0.284023 0.0147163 0.0174948 0.45914 -3.29324 -0.137959 -0.121943 -0.0116716
1622 1 0.252343 0.013286 0.0374698 0.650114 -3.29929 0.146607 0.165474 0.119835
1705 1 0.283219 0.039372 0.0391146 1.91102 -3.22312 -0.320996 -0.273871 -0.486676
107 1 0.288038 0.0412133 0.996968 0.86023 -3.31382 0.153567 -0.406266 -0.256059
32 1 0.315984 0.0158473 1.00017 1.74368 -3.30377 0.541381 0.604724 -0.29384
1626 1 0.309938 0.014856 0.0402314 1.48194 -3.30598 -0.102737 0.142474 -0.341071
1709 1 0.31659 0.0411507 0.0207964 0.985841 -3.29646 -0.435675 -0.203447 0.28311
111 1 0.345814 0.0427939 1.00154 0.634994 -3.27405 0.381066 -0.272994 -0.460713
1630 1 0.346784 0.0201735 0.0222652 2.98148 -3.30664 -0.389017 -0.317679 0.518674
36 1 0.375718 0.0165166 0.00264109 1.63988 -3.27003 -0.0683548 0.71754 0.00833775
1713 1 0.375711 0.0437539 0.0234814 2.43662 -3.28102 -0.350535 -0.412386 0.369533
115 1 0.405122 0.0418422 0.00521008 1.07946 -3.33861 0.157773 0.42949 -0.19296
1634 1 0.404177 0.0207633 0.0296128 0.995084 -3.29232 -0.356579 0.00376817 -0.345231
40 1 0.433519 0.0197918 0.0072914 0.835201 -3.35664 0.124905 0.370658 -0.173487
1717 1 0.433092 0.0450777 0.0291744 0.900813 -3.32714 -0.634202 -0.11358 0.00831019
119 1 0.460952 0.0455661 0.00937874 0.834084 -3.33554 -0.0229594 0.125721 -0.359941
1638 1 0.460897 0.0216949 0.0326473 0.865811 -3.21329 -0.52765 0.611307 -0.801377
44 1 0.489263 0.0228347 0.0107926 0.526966 -3.31655 0.508573 0.150323 0.0414429
1642 1 0.517068 0.0250764 0.0347365 5.33637 -3.30687 0.185699 -0.102557 -0.382565
123 1 0.515528 0.0500048 0.00999343 0.630602 -3.33023 0.0803058 -0.500625 0.0090869
1721 1 0.489493 0.0478411 0.0316068 1.32893 -3.33075 -0.65742 0.17104 0.374195
48 1 0.543978 0.023901 0.0120023 1.01579 -3.28572 -0.539109 0.690074 0.0334043
52 1 0.597449 0.0287092 0.0145088 1.00946 -3.27846 0.471361 -0.277949 0.261902
49 1 0.598482 0.00415182 0.992623 1.49063 -3.26365 1.24698 0.058858 -0.382608
127 1 0.570267 0.0492543 0.0152766 1.55217 -3.28798 -0.333779 0.476304 -0.707102
1725 1 0.542257 0.0514744 0.034601 6.07073 -3.27023 -0.386091 -0.187696 0.344301
51 1 0.628709 0.00701442 0.015634 1.62027 -3.3293 -0.368669 -0.522126 0.291312
56 1 0.655351 0.029704 0.0195823 0.519559 -3.2768 0.0717086 -0.208273 0.377432
131 1 0.62645 0.0509209 0.0179027 1.17516 -3.32816 -0.556601 0.399489 0.151267
50 1 0.627942 0.0280588 0.992943 1.00991 -3.36078 -0.130817 0.370801 -0.00390735
53 1 0.658796 0.0073199 0.994688 0.819857 -3.2959 0.0509127 0.00109603 0.429864
60 1 0.711969 0.031038 0.0260164 0.478391 -3.37036 -0.007461 0.0684684 -0.0759027
55 1 0.683874 0.00596727 0.0219405 0.363368 -3.31379 -0.384309 0.179615 -0.313205
54 1 0.686621 0.0312813 0.00181631 1.02246 -3.32387 0.0909364 -0.272484 -0.537521
57 1 0.718042 0.00821862 0.000346528 1.53898 -3.3611 -0.251364 0.0793273 0.413273
64 1 0.767044 0.0340085 0.0298918 0.814854 -3.26017 -0.122336 -0.403972 0.134438
58 1 0.744177 0.0323253 0.00475798 0.762006 -3.31047 -0.13752 -0.158541 0.192718
59 1 0.73953 0.00660021 0.028486 0.876247 -3.33197 -0.0277221 0.642963 -0.100051
61 1 0.770931 0.00768509 0.00936678 0.440948 -3.33277 0.169467 0.0432993 -0.348578
63 1 0.794894 0.0097081 0.034758 0.493047 -3.31174 0.0100412 -0.521368 0.289345
68 1 0.82388 0.0340354 0.036983 0.415822 -3.29667 -0.0468259 0.219549 0.256149
65 1 0.82674 0.00928147 0.0157437 1.17838 -3.28336 0.0220367 -0.0265201 -0.478239
62 1 0.798404 0.031176 0.014057 2.66384 -3.21746 0.229477 0.461392 -0.914402
72 1 0.875475 0.0349848 0.0409522 0.378904 -3.2526 0.0316576 0.51225 0.115723
66 1 0.852369 0.0351097 0.0159026 0.464989 -3.26047 0.0444913 0.21833 -0.369982
67 1 0.850549 0.0101289 0.0400086 0.744912 -3.22343 -0.1069 -0.28101 0.150982
69 1 0.875355 0.0106608 0.0179092 2.59677 -3.26963 0.960139 -0.211033 -0.550407
70 1 0.904072 0.0370071 0.0196233 0.741941 -3.29031 -0.0155696 -0.193292 -0.0518069
76 1 0.930279 0.0360969 0.0438926 1.08911 -3.30577 -0.111417 -0.245054 0.517747
73 1 0.933061 0.0133607 0.0219521 0.590981 -3.28006 0.465604 -0.0834031 0.344083
71 1 0.900958 0.0123263 0.0425445 1.07212 -3.3096 0.255269 -0.319156 0.251198
78 1 0.989064 0.0395182 0.000771596 7.02828 -3.33675 0.467017 -0.233965 0.67631
75 1 0.959368 0.0122111 0.0478518 0.66434 -3.28854 -0.130256 0.508439 0.348758
74 1 0.961289 0.0382151 0.0242761 0.56849 -3.30142 -0.0325753 -0.10121 -0.201363
80 1 0.985008 0.0378389 0.0494593 0.579612 -3.29663 -0.427748 -0.164614 0.266751
79 1 0.988318 0.0143613 0.0261334 7.28631 -3.31954 0.414899 0.203364 -0.143976
77 1 0.962532 0.014237 -0.000407554 7.40215 -3.33313 0.211945 0.293529 0.30222
83 1 0.0409341 0.064275 0.0316381 8.04265 -3.29301 -0.0482884 -0.0420982 -0.211383
81 1 0.0169989 0.0639274 0.0045969 6.43156 -3.31784 0.24461 -0.427961 0.311102
84 1 0.0363337 0.088 0.053579 0.570322 -3.29269 0.102094 -0.183662 -0.160386
82 1 0.0450875 0.0869432 0.00859379 8.07242 -3.29893 -0.501671 0.204928 -0.59244
158 1 0.0122703 0.0859941 0.0280781 0.960752 -3.27029 0.208243 0.619443 -0.0491294
88 1 0.0682343 0.0891352 0.0319091 8.0168 -3.18684 0.498043 -0.720278 0.264455
87 1 0.0785023 0.0561224 0.0253785 0.681493 -3.27466 0.208445 0.321471 -0.260024
92 1 0.105932 0.081234 0.0265135 0.818973 -3.31163 0.0704065 0.0372172 -0.0330962
86 1 0.0823881 0.0823895 0.00109185 0.347959 -3.27214 -0.359922 -0.176463 0.149884
91 1 0.116238 0.0513838 0.0201193 1.02346 -3.29594 0.336097 -0.0207936 -0.342651
1689 1 0.104059 0.0565469 0.0497012 1.18986 -3.32475 0.272926 0.653405 0.377426
96 1 0.14393 0.0748665 0.0208412 1.0586 -3.24263 0.338514 -0.207834 -0.40244
1693 1 0.145754 0.0533303 0.0442543 0.860474 -3.28204 -0.563999 -0.639742 0.121147
1694 1 0.17101 0.0771238 0.0448406 0.755321 -3.21257 -0.220056 0.292852 -0.717773
100 1 0.183516 0.0713311 0.0128787 0.565045 -3.26937 -0.0549205 -0.465938 0.0652402
1698 1 0.208646 0.0718811 0.0348988 3.47081 -3.26901 0.465402 0.0930019 0.427186
104 1 0.22189 0.0661223 0.00620094 2.04513 -3.24704 0.109782 -0.0770045 0.201094
179 1 0.211095 0.0992853 0.0144024 1.45851 -3.24064 -0.739002 -0.476012 0.0950172
183 1 0.246475 0.0924281 0.00841609 1.42759 -3.24762 1.20143 -0.283485 0.18678
1785 1 0.275829 0.0905908 0.0331004 1.23536 -3.33817 -0.227541 0.359008 -0.186177
108 1 0.258347 0.0640157 0.995324 6.07804 -3.28763 0.294027 -0.209322 0.383302
1702 1 0.248926 0.0669221 0.0312415 2.20305 -3.33651 -0.174931 -0.243731 -0.187853
1781 1 0.234975 0.0971206 0.0392318 0.850899 -3.35069 0.254022 0.104887 -0.0786033
112 1 0.316652 0.065384 0.999868 0.357447 -3.29727 0.346066 -0.058372 -0.294479
187 1 0.288773 0.0869097 0.99868 7.54087 -3.33613 -0.38294 0.212421 0.118639
1706 1 0.286357 0.0625739 0.0192549 6.55085 -3.28578 -0.20121 0.274984 0.270285
1789 1 0.313818 0.0867489 0.0244994 7.31998 -3.28986 0.313051 0.332528 -0.399403
191 1 0.346822 0.0910731 0.00303881 0.893881 -3.32383 -0.38397 -0.521816 -0.021575
116 1 0.37491 0.0674022 0.00221953 1.00575 -3.29474 -0.0787662 -0.413924 0.565021
1710 1 0.34369 0.0647743 0.0240669 0.498504 -3.29225 0.0813019 0.483303 -0.131696
1793 1 0.370764 0.0906002 0.0275998 0.542062 -3.33746 0.11814 -0.210603 0.201681
195 1 0.397952 0.0924405 0.0058851 1.42422 -3.28246 0.68951 -0.117449 -0.0399333
1714 1 0.402267 0.0676022 0.028794 0.766003 -3.30306 -0.240351 0.0791647 -0.244885
120 1 0.428584 0.0703615 0.00689889 0.997035 -3.31324 0.271035 -0.350162 -0.224012
1718 1 0.456097 0.070771 0.0297312 0.437506 -3.30149 0.39343 0.0118683 -0.153521
199 1 0.456226 0.0949128 0.00634023 0.702328 -3.3906 0.177858 0.0935399 0.190769
1797 1 0.427523 0.0932898 0.0286079 0.349709 -3.3423 -0.183699 0.188915 0.0767535
124 1 0.484892 0.071641 0.00741883 1.02554 -3.27735 -0.17444 0.12664 0.662905
1801 1 0.482992 0.0955371 0.0326579 0.42043 -3.29153 -0.427838 0.314022 -0.505254
1722 1 0.512357 0.0749039 0.0329065 0.642021 -3.27235 -0.134824 -0.436571 0.325178
203 1 0.51009 0.0966245 0.0110344 0.940881 -3.3257 0.212601 0.520855 -0.0862394
128 1 0.540307 0.0749277 0.0131511 0.569802 -3.27745 0.374219 -0.158026 -0.60252
1726 1 0.565836 0.0770264 0.0356687 7.45119 -3.22407 0.672603 -0.611075 0.492928
207 1 0.567145 0.0992202 0.0119121 1.56237 -3.23184 -0.00678923 -0.460693 1.01967
1805 1 0.540142 0.0980865 0.0366265 1.02916 -3.18704 -0.632228 0.0271369 -0.587088
132 1 0.595393 0.0749557 0.0174825 1.06219 -3.28089 0.154537 -0.254404 -0.821686
136 1 0.652768 0.0768351 0.0208248 0.398839 -3.30966 -0.417728 -0.111078 -0.0977283
133 1 0.657627 0.0534724 0.999534 1.13273 -3.30432 -0.0823147 0.0699924 -0.601212
135 1 0.682538 0.0551331 0.0242595 0.481923 -3.31864 0.078901 -0.325419 -0.111089
140 1 0.708593 0.0793734 0.0255021 0.521908 -3.25065 -0.372636 -0.71609 -0.0572689
137 1 0.712569 0.0550028 0.00250581 0.470016 -3.26426 -0.14915 0.037389 0.305974
134 1 0.684069 0.0789849 0.998596 0.902873 -3.33607 -0.295394 -0.405154 0.230199
139 1 0.739141 0.056638 0.0266961 0.403123 -3.33769 -0.325993 -0.0367567 0.0212346
144 1 0.764352 0.0821965 0.0293794 0.836104 -3.26176 0.0159114 -0.510215 0.0571094
141 1 0.773115 0.057556 0.00748763 2.00828 -3.29336 -0.8937 -0.216932 0.293439
138 1 0.736776 0.0781279 0.00364085 2.26243 -3.3042 1.08187 0.270123 -0.245484
145 1 0.824572 0.0571095 0.0139009 0.817472 -3.35465 -0.0748925 0.483704 -0.0749091
143 1 0.794676 0.0580733 0.0336944 0.595583 -3.33942 0.162926 0.126827 0.00365549
148 1 0.82063 0.0839361 0.0353213 0.422512 -3.35882 0.0233991 0.00139337 0.0290129
142 1 0.794586 0.0825644 0.011804 1.32152 -3.29756 0.726119 -0.0462056 -0.626125
147 1 0.849101 0.0605304 0.0398556 1.01814 -3.25586 0.725213 -0.24806 -1.05798
149 1 0.878407 0.0596208 0.0171585 0.782608 -3.36305 -0.187974 0.373024 0.0288509
152 1 0.87767 0.0851412 0.0376536 1.16245 -3.37194 -0.2033 -0.258198 0.204501
146 1 0.850194 0.0853898 0.0135898 0.982965 -3.27609 0.484546 -0.90612 0.411252
151 1 0.904816 0.0607557 0.0437203 1.43104 -3.28817 -0.284147 0.0752039 -0.208158
150 1 0.907014 0.0857339 0.0151737 2.61242 -3.21903 -0.24156 -0.0123051 1.01707
156 1 0.928243 0.0876146 0.043797 1.57296 -3.24161 0.0117022 -0.523848 -0.50664
153 1 0.932142 0.0612128 0.0230419 1.24887 -3.29791 0.066058 0.108621 -0.853703
155 1 0.954044 0.0610377 0.047309 0.986636 -3.26718 0.292743 0.0650633 -0.183124
154 1 0.960362 0.0859733 0.0234668 0.680984 -3.2866 0.286743 -0.468747 -0.0868058
159 1 0.00949753 0.0615658 0.0535931 1.38529 -3.29001 0.00250108 0.355492 -0.0336399
160 1 0.984779 0.0859187 0.0493175 1.65787 -3.31324 -0.454073 0.124844 -0.251516
157 1 0.987076 0.0629835 0.0259062 0.224234 -3.28781 -0.300689 -0.285627 -0.0811177
163 1 0.0649114 0.112692 0.0547741 0.683432 -3.29332 0.239312 0.256079 0.00978933
164 1 0.0384848 0.137379 0.0494462 0.521255 -3.31862 -0.120411 -0.219782 0.168815
161 1 0.0428236 0.110283 0.0303109 2.52589 -3.26992 -0.879877 0.770565 -0.433457
239 1 0.00884477 0.11332 0.0482993 1.07659 -3.30425 0.553455 -0.605135 -0.0421949
238 1 0.0133642 0.137039 0.0253933 0.322361 -3.29445 -0.35702 -0.20769 -0.121941
162 1 0.0684681 0.136313 0.02988 0.820736 -3.27696 -0.320739 0.0683814 -0.224281
165 1 0.0693472 0.114007 0.00476135 6.41022 -3.30492 -0.400804 -0.24581 0.159359
167 1 0.094285 0.112335 0.0308169 6.94725 -3.30498 0.348891 0.251251 0.20674
166 1 0.0945247 0.137977 0.0067242 6.66752 -3.2247 0.88959 0.18562 0.519614
169 1 0.1064 0.106917 0.00155432 0.748624 -3.23215 0.519476 -0.0191216 -0.0961646
172 1 0.120206 0.13714 0.0322689 7.25857 -3.33344 0.364809 0.115154 -0.340148
171 1 0.135618 0.103369 0.0261432 2.79931 -3.27927 -0.540808 1.10196 0.17331
176 1 0.161116 0.130905 0.0262691 1.16399 -3.33545 -0.443265 0.0651591 0.148966
170 1 0.132975 0.130358 0.0021483 1.05725 -3.29788 0.383247 0.419553 0.304104
175 1 0.172909 0.100744 0.0179186 1.51075 -3.2911 -0.138021 0.380224 0.439653
1773 1 0.159307 0.107537 0.0520704 0.688529 -3.26468 -0.295133 0.0750462 -0.172106
180 1 0.199231 0.128612 0.0208098 0.412472 -3.2684 -0.219916 -0.328988 -0.222247
1777 1 0.196284 0.106749 0.0461025 3.43119 -3.22873 0.573496 -0.768435 -0.770154
1778 1 0.225599 0.12986 0.0447571 1.15536 -3.33702 -0.305437 0.018855 0.255084
184 1 0.237396 0.122091 0.0152461 0.26932 -3.23974 0.313391 0.320643 0.273713
1782 1 0.262734 0.123485 0.0413721 1.2904 -3.31931 0.345229 -0.492059 -0.544537
188 1 0.275985 0.116284 0.0108234 1.1081 -3.33806 -0.133368 -0.15099 -0.187025
263 1 0.264894 0.146753 0.016083 0.351725 -3.32464 0.0325011 0.118271 0.198764
1786 1 0.303708 0.116105 0.031506 1.47794 -3.29641 -0.0343603 0.42784 0.717313
192 1 0.315469 0.112157 1.00199 7.32036 -3.29986 0.215835 -0.227899 -0.132492
267 1 0.304088 0.141415 0.00964133 0.839758 -3.28149 -0.632551 0.425993 -0.0139711
1869 1 0.327862 0.143869 0.033632 0.572772 -3.28477 0.207428 -0.172964 0.338398
271 1 0.341129 0.139592 0.00409351 6.82969 -3.30155 0.26709 -0.30666 -0.479392
1790 1 0.343232 0.113874 0.0264699 7.32749 -3.28918 -0.511584 -0.309613 0.0742633
196 1 0.371888 0.115585 0.00430619 0.363217 -3.21755 -0.106406 0.234459 0.0740806
1873 1 0.36735 0.137431 0.0272941 7.5258 -3.3172 0.310104 0.420202 0.345849
1794 1 0.39881 0.115451 0.0277608 0.676535 -3.32364 -0.0495968 0.269243 0.319265
275 1 0.396755 0.14102 0.00552319 0.383967 -3.27892 -0.214695 0.0386103 0.0569129
200 1 0.425316 0.118096 0.00441096 1.25747 -3.28121 0.379325 -0.0822702 0.74233
1877 1 0.424421 0.142163 0.0307398 0.792379 -3.33078 -0.467605 -0.312918 -0.368896
1798 1 0.450996 0.118559 0.0303193 0.655627 -3.35824 -0.0753052 -0.139015 0.0890219
279 1 0.452839 0.142762 0.00760841 0.447039 -3.26178 -0.560495 0.220482 0.229161
204 1 0.481505 0.120459 0.0110667 0.847771 -3.34193 0.68572 -0.121093 -0.33802
1802 1 0.51055 0.119137 0.0361325 2.0129 -3.26604 -0.569156 0.555739 -0.898189
283 1 0.510127 0.146252 0.0116585 1.49306 -3.33806 -0.506408 -0.626461 -0.361428
1881 1 0.477488 0.142963 0.0323642 0.552671 -3.3148 0.50464 0.120331 0.057281
208 1 0.536584 0.120685 0.0124906 0.983343 -3.38435 0.1522 0.476331 0.0637877
1806 1 0.564898 0.121898 0.0362769 0.523202 -3.25852 -0.23956 0.286833 0.0394227
287 1 0.56667 0.145426 0.0122795 0.781405 -3.33507 -0.502911 0.0365972 0.654728
1885 1 0.533738 0.146533 0.0350448 1.02769 -3.31452 0.389618 -0.329507 -0.097872
1809 1 0.594031 0.100687 0.0400425 1.84182 -3.21099 -0.360411 0.0493178 -0.63492
211 1 0.622444 0.0984027 0.0176032 0.814951 -3.34249 0.139767 0.395288 0.0660612
212 1 0.592537 0.122257 0.015653 0.715947 -3.30927 0.852993 -0.0739432 -0.378406
1810 1 0.620778 0.123934 0.0402336 0.821811 -3.298 -0.118399 -0.0380205 0.0541356
1889 1 0.591186 0.144829 0.0380773 0.650814 -3.34139 -0.162333 0.523908 0.222683
215 1 0.678096 0.0994428 0.02275 0.971352 -3.27929 0.164471 0.483981 -0.329344
216 1 0.650378 0.124012 0.0192993 0.325017 -3.27967 -0.200422 -0.154195 -0.0635656
220 1 0.705304 0.123401 0.0236301 0.690969 -3.35053 0.117096 0.262343 -0.0496575
217 1 0.710811 0.100828 0.00037094 0.584416 -3.29223 -0.103982 0.396202 0.228628
219 1 0.734238 0.100323 0.0263227 1.77323 -3.25543 0.350629 1.23562 0.0278808
224 1 0.76241 0.129055 0.027587 0.791408 -3.29205 -0.410961 -0.441906 0.225375
1818 1 0.730247 0.125676 0.048499 0.539202 -3.37309 -0.243445 0.0367374 0.0311382
221 1 0.767586 0.104931 0.00669212 0.62262 -3.31517 -0.448134 -0.271921 0.161179
218 1 0.736741 0.125786 0.0040429 0.551477 -3.32059 -0.14952 0.276343 0.0664517
223 1 0.79076 0.105109 0.0331639 0.753448 -3.32142 0.323422 0.522075 -0.202251
228 1 0.819184 0.12929 0.034496 0.978833 -3.35988 -0.250456 0.270031 -0.37223
225 1 0.824277 0.106724 0.0109499 0.859564 -3.25005 -0.913586 0.375926 0.435327
222 1 0.793529 0.129157 0.00964082 0.619323 -3.3323 0.180356 -0.115912 -0.226374
227 1 0.849109 0.108208 0.0362935 0.358156 -3.3375 -0.208772 -0.0216099 0.0853019
229 1 0.879136 0.108311 0.0153379 0.455598 -3.33411 -0.113715 0.341264 -0.0853403
232 1 0.875825 0.133689 0.0386465 0.655908 -3.33575 -0.521765 -0.0545956 -0.281426
226 1 0.850554 0.131761 0.0125685 0.305679 -3.33421 -0.179839 -0.11993 0.0767604
231 1 0.901838 0.109949 0.0412813 0.427915 -3.24963 -0.00164742 0.142136 -0.426519
236 1 0.929422 0.133503 0.0415664 0.700283 -3.32646 0.0402739 0.438899 0.307415
233 1 0.934917 0.107297 0.0208364 3.4185 -3.27294 -0.453742 1.08444 -0.520667
230 1 0.906155 0.133174 0.0182753 0.713354 -3.32557 -0.0262569 -0.0882259 -0.640238
235 1 0.957072 0.11194 0.0455507 0.873206 -3.26201 0.0728951 -0.447478 0.0200818
234 1 0.958934 0.135419 0.0199097 0.367091 -3.30296 -0.331273 0.422306 0.216781
240 1 0.983247 0.135146 0.0452798 0.632532 -3.249 -0.456484 0.736318 0.0327795
237 1 0.983516 0.112235 0.0235215 1.24512 -3.28419 0.560054 -0.414734 -0.285986
244 1 0.0361467 0.18438 0.0493787 0.719796 -3.31891 0.343738 0.217879 -0.536201
242 1 0.042068 0.185718 0.00389538 0.399981 -3.32823 0.125539 0.321137 -0.195405
241 1 0.0409296 0.162229 0.0252024 0.988695 -3.34028 0.152414 -0.192124 0.534771
319 1 0.00949706 0.159545 0.0468909 0.555365 -3.30043 -0.0930158 0.296121 -0.141906
318 1 0.0119199 0.184133 0.0239142 0.673296 -3.31596 0.190155 0.690065 0.0721324
243 1 0.0648128 0.161207 0.0512355 0.545336 -3.20455 -1.09072 0.0451281 0.09321
248 1 0.0664551 0.189147 0.0283575 1.76688 -3.27412 -0.0889959 -0.79492 -0.0953294
245 1 0.0700398 0.162247 0.00411618 1.32728 -3.25153 -0.146384 0.46824 0.528808
247 1 0.0914023 0.162146 0.0314485 1.09394 -3.24024 0.406044 0.110366 -0.84278
246 1 0.0963064 0.186872 0.00945401 1.19274 -3.25666 -0.462594 0.678393 -0.853546
249 1 0.122148 0.165436 0.00985735 8.99396 -3.29177 0.764565 -0.807324 -0.167066
252 1 0.119103 0.187509 0.0325239 0.552395 -3.2866 0.582582 0.255091 0.321762
251 1 0.14981 0.165198 0.0320694 7.16974 -3.33686 -0.217595 -0.245353 0.302281
256 1 0.176689 0.189102 0.035024 7.47458 -3.30204 -0.0407316 0.00992588 -0.119274
250 1 0.15323 0.191138 0.0105013 7.17798 -3.2461 -0.757061 -0.818496 0.0805033
259 1 0.22544 0.152567 0.0214912 0.575853 -3.33676 0.233271 0.415361 0.264603
255 1 0.187809 0.157046 0.0273174 0.834837 -3.26568 0.0767289 0.466408 0.484574
260 1 0.213763 0.184417 0.0267997 0.932966 -3.33614 0.0690659 -0.14482 0.209114
254 1 0.188299 0.182441 0.00231129 0.83793 -3.29937 0.291553 0.0655813 -0.0603346
264 1 0.253332 0.178432 0.0233682 0.652328 -3.30277 -0.517699 -0.0232629 -0.237434
1861 1 0.252546 0.154787 0.0463661 0.676589 -3.31566 -0.3848 -0.161179 0.0834995
1862 1 0.278159 0.179713 0.0476259 0.253342 -3.33209 0.0949292 -0.0311954 -0.00842238
268 1 0.28898 0.173381 0.0166861 0.422968 -3.31701 0.539405 -0.014595 -0.064161
1866 1 0.316988 0.173593 0.0419704 0.668523 -3.33612 -0.423235 0.345294 0.143595
272 1 0.326897 0.17022 0.0115647 1.268 -3.29221 0.0839857 -0.364582 -0.576748
1865 1 0.290081 0.147599 0.0406764 0.314894 -3.31568 0.0974205 0.0737682 -0.258306
276 1 0.365499 0.164509 0.00410772 8.24852 -3.31291 0.0855243 -0.182807 -0.219602
351 1 0.35431 0.195665 0.00934423 1.00624 -3.31669 -0.0605114 -0.0663463 0.131548
1870 1 0.353384 0.168876 0.0336857 0.786752 -3.27942 0.441829 0.0821009 0.362351
1953 1 0.380456 0.19324 0.0359235 0.94384 -3.31442 -0.102001 0.0261617 -0.110212
355 1 0.391962 0.188545 0.00640495 7.51476 -3.28813 0.327937 0.452366 -0.10991
1874 1 0.392141 0.162286 0.0274618 7.55637 -3.34511 0.367239 0.388153 0.58707
280 1 0.423688 0.166984 0.00658173 0.491436 -3.29544 -0.0513469 -0.226002 0.356193
359 1 0.447603 0.191689 0.00867061 1.06796 -3.2776 0.687494 -0.178792 -0.354995
1878 1 0.449473 0.165422 0.0305312 0.413135 -3.29702 -0.0472404 0.506876 0.152529
1957 1 0.419449 0.18996 0.0302316 7.36084 -3.28489 0.11938 -0.944921 -0.101433
284 1 0.478408 0.166454 0.0087029 0.830931 -3.30237 0.133746 0.682568 0.319622
1882 1 0.504771 0.16919 0.0333197 0.741114 -3.34832 -0.389955 0.040155 0.0231857
1961 1 0.47289 0.191705 0.0322622 1.32586 -3.34011 0.619506 -0.356834 0.00950955
363 1 0.508678 0.188338 0.00749381 3.79871 -3.24535 -0.80041 0.832766 0.546473
288 1 0.536859 0.168885 0.00872011 1.96081 -3.20201 0.313122 -0.311746 0.810265
1886 1 0.560248 0.169265 0.0367925 0.862042 -3.38237 0.508677 0.224894 -0.506074
367 1 0.559825 0.193984 0.012883 0.679344 -3.28826 0.405073 -0.307864 -0.141643
1965 1 0.531611 0.192225 0.0330074 0.745252 -3.30226 -0.341684 0.190745 0.272142
292 1 0.593234 0.171763 0.014711 1.3463 -3.26434 -0.674229 -0.814149 0.621652
1969 1 0.586836 0.195991 0.0377534 0.71643 -3.32571 -0.198843 -0.441931 -0.0496148
291 1 0.620859 0.145403 0.0161764 0.645589 -3.36302 -0.187353 0.307892 -0.0170211
1890 1 0.616612 0.168756 0.03997 1.03824 -3.31906 -0.0694647 0.308727 -0.0099029
1893 1 0.646711 0.14803 0.0414604 0.476089 -3.31096 -0.305184 -0.266408 0.210349
296 1 0.646062 0.170386 0.0185947 0.284583 -3.33115 -0.0731552 0.285485 -0.0206283
371 1 0.616899 0.194642 0.017636 0.46316 -3.29834 0.548459 0.545306 -0.0243446
1973 1 0.641868 0.195164 0.0415085 0.242958 -3.34125 -0.0986933 0.0750885 0.134068
295 1 0.676392 0.148389 0.0199921 0.354523 -3.32535 0.107565 0.13412 0.274576
1894 1 0.670507 0.17228 0.0438216 0.435256 -3.30723 0.43356 0.156115 -0.5456
1897 1 0.700882 0.148594 0.0451685 0.2046 -3.34833 0.278463 0.178701 -0.0533756
300 1 0.703572 0.172193 0.021887 0.971113 -3.35461 -0.407638 0.313455 0.174922
299 1 0.731953 0.149449 0.024661 0.521466 -3.33911 -0.217742 0.233556 -0.301582
304 1 0.758841 0.175401 0.0233782 1.74441 -3.29655 -0.14072 0.0775367 0.914793
1898 1 0.727938 0.176114 0.045896 0.825377 -3.30003 -0.176799 -0.466123 -0.124268
1901 1 0.754221 0.15226 0.0489924 1.13958 -3.3044 0.295528 0.165465 0.369765
303 1 0.786568 0.153102 0.0308116 0.943312 -3.31779 0.437253 0.249152 -0.241714
308 1 0.813141 0.179866 0.0320256 1.32648 -3.30351 0.873049 -0.608115 -0.522567
305 1 0.818688 0.152945 0.00996375 0.656157 -3.33371 0.119099 0.257977 0.0474639
302 1 0.789487 0.175214 0.00562504 1.6678 -3.26571 0.429521 0.767594 0.417104
309 1 0.877137 0.154995 0.0141969 0.972139 -3.31931 0.0706003 0.580133 -0.0717916
307 1 0.844315 0.155456 0.0336279 0.455329 -3.37501 0.118752 0.229335 0.240522
312 1 0.871371 0.181361 0.0355438 0.293221 -3.36544 -0.143183 -0.536089 -0.377421
306 1 0.84552 0.179135 0.0102097 0.506041 -3.30961 0.13379 0.0436228 0.353354
311 1 0.901478 0.157951 0.0392735 0.2035 -3.3211 -0.162698 0.106181 0.166304
316 1 0.925804 0.183785 0.0404684 0.441694 -3.27472 0.380091 -0.360329 -0.0909436
313 1 0.931771 0.159437 0.0201195 1.01301 -3.31086 0.108567 -0.3153 -0.440751
310 1 0.903954 0.183332 0.0150256 0.729786 -3.36109 -0.409301 -0.194467 -0.203138
315 1 0.956007 0.161256 0.0448423 1.20934 -3.32131 -0.0875273 -0.371911 -0.80931
320 1 0.983123 0.18429 0.0456599 1.00321 -3.30477 -0.402816 -0.0137792 -0.59383
317 1 0.986108 0.162593 0.0195221 2.23652 -3.31151 -0.714828 -0.602232 0.629573
314 1 0.955727 0.184519 0.0190168 0.911386 -3.29261 0.373752 -0.0752111 0.38659
323 1 0.0394941 0.210832 0.02589 0.475122 -3.31002 -0.583023 0.0333075 -0.0988329
1922 1 0.0342773 0.232859 0.0491194 0.666826 -3.35355 -0.00746799 0.545623 -0.0789083
324 1 0.00980554 0.234483 0.0224572 0.468669 -3.36695 -0.0468568 -0.158273 0.469445
399 1 0.00710605 0.209758 0.0452601 0.549572 -3.3282 0.268767 0.059494 -0.136169
1925 1 0.0622026 0.209966 0.0508363 0.67311 -3.29282 -0.0945774 0.150014 0.543172
328 1 0.065444 0.236115 0.0303047 1.32244 -3.31857 0.240242 -0.296286 -0.78399
325 1 0.0686514 0.210991 0.00464953 0.499793 -3.33647 0.388584 0.188806 0.3168
327 1 0.0935335 0.212238 0.0327181 0.948416 -3.31389 -0.035397 0.128644 -0.762754
332 1 0.121693 0.235966 0.0361558 1.4331 -3.27223 -0.218124 -0.218709 -0.801509
326 1 0.0978964 0.234976 0.00715606 0.6396 -3.39434 -0.373212 0.100461 0.403042
329 1 0.124493 0.212159 0.0110087 0.445891 -3.31566 -0.363514 0.124809 -0.240469
331 1 0.147752 0.212505 0.0353862 0.298078 -3.33866 0.182002 0.0365554 -0.0270235
336 1 0.175756 0.238251 0.0382085 1.25269 -3.3149 -0.0115524 -0.342386 -0.313082
330 1 0.151503 0.237182 0.0128652 0.387381 -3.34582 0.0226095 -0.0570357 0.00536657
333 1 0.180065 0.212345 0.013026 6.63078 -3.26998 -0.0265766 0.537411 -0.092319
335 1 0.20338 0.215218 0.0366589 7.75085 -3.31711 0.128565 -0.294337 0.309382
334 1 0.206996 0.237231 0.0130659 7.71302 -3.16038 -0.18115 -0.303562 0.577805
340 1 0.231473 0.237826 0.0391737 6.55647 -3.28397 -0.0828042 -0.00998256 0.702831
337 1 0.216602 0.209267 0.00196668 1.56854 -3.27158 -0.209097 -0.132493 0.166904
339 1 0.239782 0.208717 0.0265018 2.29162 -3.27094 -0.0239584 0.216046 0.235618
338 1 0.241852 0.236108 0.00393838 2.58899 -3.29973 0.428946 -0.386159 -0.331974
343 1 0.277908 0.20625 0.0235448 0.956823 -3.28005 0.491637 -0.554336 -0.550785
344 1 0.265563 0.235877 0.028027 5.41938 -3.26901 0.529486 0.562798 -0.157567
1949 1 0.341894 0.20006 0.0422939 0.473635 -3.37359 -0.155396 -0.0784238 -0.254008
347 1 0.316027 0.199194 0.0171654 0.390058 -3.3282 -0.162921 0.322168 0.102982
348 1 0.30672 0.23216 0.0229556 1.38943 -3.23348 -0.787302 -0.297387 -0.338441
352 1 0.342929 0.22445 0.017673 0.765793 -3.28142 0.114696 0.248166 -0.392696
1945 1 0.302363 0.206341 0.0476827 0.413194 -3.2912 0.686304 -0.33614 -0.139526
1946 1 0.32953 0.231522 0.0465308 0.360318 -3.25739 0.472984 -0.1994 0.134058
356 1 0.382423 0.220835 0.0116653 0.74475 -3.28527 0.0874368 -0.278791 -0.317106
1950 1 0.36932 0.224603 0.0395451 1.30108 -3.30417 -0.371767 0.192271 0.65087
1954 1 0.408072 0.217576 0.0361336 1.42835 -3.23641 -0.280404 0.877364 -0.000202864
360 1 0.42089 0.214002 0.00568318 8.36092 -3.34818 -0.30126 0.223782 -0.0869294
439 1 0.448511 0.238663 0.00851333 6.34355 -3.29909 -0.152843 -0.125419 -0.567483
1958 1 0.446924 0.214668 0.0314575 6.46232 -3.25235 -0.286292 -0.0406653 -0.17909
364 1 0.476854 0.214365 0.00845208 0.599871 -3.35463 0.0299683 -0.284924 -0.162822
1962 1 0.501098 0.215807 0.0333423 0.485791 -3.3254 -0.00725501 -0.419209 -0.100319
443 1 0.502175 0.238123 0.0105402 0.802873 -3.33896 0.107204 0.506369 -0.289501
2041 1 0.473027 0.239221 0.0322748 6.85236 -3.24713 0.13492 -0.267081 -0.0522066
2045 1 0.526929 0.239446 0.035465 0.457734 -3.29025 -0.0579243 0.132629 -0.596009
368 1 0.531078 0.215696 0.009903 0.60168 -3.31682 -0.137314 0.250719 0.381937
1966 1 0.556276 0.216858 0.0352529 0.361438 -3.32929 -0.0699638 0.0678362 0.281033
447 1 0.557388 0.241528 0.01452 0.564698 -3.36256 -0.14228 -0.0405852 -0.11217
372 1 0.585566 0.217254 0.0143119 0.992266 -3.31889 0.267647 0.407711 0.0590209
2049 1 0.583119 0.240083 0.0383094 1.43846 -3.30363 -0.37841 0.567301 0.0615334
1970 1 0.613048 0.220887 0.0394046 1.18103 -3.29522 -0.0339788 -0.710801 0.02374
451 1 0.61052 0.244581 0.0172517 1.21542 -3.33426 0.331666 -0.424377 -0.0365877
376 1 0.643851 0.220164 0.0198354 0.830766 -3.34411 -0.222534 -0.198545 -0.589595
2053 1 0.639555 0.242909 0.0412634 0.952057 -3.31767 -0.300012 0.578457 0.350658
375 1 0.670663 0.19662 0.0194947 0.686745 -3.34447 0.167047 -0.229513 0.218802
1974 1 0.6671 0.220545 0.0442137 0.400529 -3.27086 0.0583322 -0.242451 0.0597244
1977 1 0.69786 0.198069 0.0433617 0.827739 -3.31537 -0.453512 -0.560616 0.0656655
380 1 0.694593 0.221554 0.0225146 1.76085 -3.29212 0.773718 0.067673 0.132261
2057 1 0.693037 0.244699 0.0452429 0.339872 -3.31643 0.180689 -0.135756 0.103191
455 1 0.668171 0.246654 0.019854 1.6086 -3.2682 0.274689 -0.637945 0.447544
379 1 0.728908 0.197582 0.0225756 0.604957 -3.30568 -0.216264 0.472522 0.323626
384 1 0.754724 0.223793 0.0261245 0.299012 -3.36944 0.0637868 0.152701 0.00377955
1978 1 0.72299 0.220892 0.0471356 0.738662 -3.30445 0.279208 0.621783 -0.559242
459 1 0.723909 0.245041 0.0225695 1.58175 -3.31155 0.253621 0.0457079 0.826085
1981 1 0.755452 0.20016 0.0474283 0.472667 -3.33613 -0.0297815 0.0333579 -0.0269137
381 1 0.76012 0.200683 0.00464886 1.26986 -3.32072 -0.0643102 0.231463 -0.501115
383 1 0.787089 0.201792 0.0280232 0.812958 -3.29219 -0.425563 -0.0472977 -0.0623158
388 1 0.809745 0.226915 0.0301992 0.920725 -3.30944 0.652012 -0.0983465 -0.133592
385 1 0.817644 0.200887 0.00706807 1.45417 -3.31378 -0.280222 0.678987 0.327182
382 1 0.787224 0.225206 0.00437281 0.643 -3.32113 -0.34167 -0.177386 0.440625
387 1 0.841016 0.203605 0.0322506 0.396844 -3.3292 -0.32997 0.121763 0.0519675
392 1 0.868816 0.229001 0.0338613 0.533383 -3.3587 -0.311183 0.0349536 0.326714
389 1 0.871061 0.204732 0.0125122 0.681152 -3.33169 0.414169 -0.0176803 -0.0417229