ITEM: TIMESTEP
19500
ITEM: NUMBER OF ATOMS
32000
ITEM: BOX BOUNDS pp pp pp
7.7846837192766420e+00 7.3215316280723414e+01
-3.9245971330666833e+00 8.4924597133066698e+01
-5.8715287231059889e+00 8.6871528723105143e+01
ITEM: ATOMS id type xs ys zs c_csym c_peratom fx fy fz
4 1 0.00447353 0.0330153 0.0263583 3.90224 -3.25335 0.319729 -0.028126 0.300896
8 1 0.045883 0.0288321 0.0240773 0.294305 -3.34588 -0.0607216 0.297594 0.116661
3 1 0.0209755 0.00199601 0.0219106 1.24231 -3.29494 -0.331467 0.416082 0.0910289
12 1 0.0877968 0.0251746 0.0205262 0.405857 -3.32791 0.201355 -0.363145 0.19945
16 1 0.130559 0.0188849 0.0171079 0.430836 -3.32459 -0.20048 0.074309 -0.00813868
1609 1 0.0870325 0.000255203 0.041759 0.429244 -3.32811 0.00955726 0.174028 0.27334
1614 1 0.15707 0.0185895 0.0396631 2.69364 -3.3102 -0.112512 0.53097 0.225026
95 1 0.155851 0.0470021 0.0191402 0.965509 -3.27915 0.422224 -0.614646 -0.0867767
20 1 0.171671 0.0164186 0.0118376 1.21599 -3.26355 0.0652103 0.24556 0.489825
99 1 0.19733 0.044144 0.0144189 1.26073 -3.31398 0.00807512 -0.17062 0.10624
1697 1 0.180412 0.046413 0.0434316 1.63517 -3.32367 0.399461 0.303687 -0.427644
24 1 0.212157 0.011492 0.0107546 7.43077 -3.24082 0.170276 -0.329435 0.0413951
1618 1 0.200015 0.0191206 0.0374369 4.28023 -3.2735 -0.612609 0.334442 0.120697
1701 1 0.226543 0.0447135 0.037908 4.35732 -3.30734 -0.20356 0.0709058 -0.0649663
1622 1 0.238968 0.0110487 0.0380718 5.43067 -3.24523 0.503347 0.119541 -0.0587391
103 1 0.237522 0.0373822 0.00957835 8.10002 -3.2395 0.532091 0.0647224 0.835595
1705 1 0.264539 0.034901 0.037156 2.74093 -3.29135 0.15551 0.142973 -0.0584599
28 1 0.266966 0.0124022 0.0152033 1.01551 -3.36402 0.069993 0.0646368 0.13115
1626 1 0.295184 0.0127488 0.0392888 0.718083 -3.30697 0.19406 -0.109462 -0.01852
1709 1 0.297257 0.0367299 0.0152085 0.901364 -3.2541 -0.735133 0.409263 0.314816
1630 1 0.329151 0.0178707 0.0178114 1.10458 -3.28007 0.0058386 -0.957689 0.27117
1711 1 0.323384 0.0383255 0.039452 0.533245 -3.26298 0.306753 -0.179979 0.474049
1713 1 0.354335 0.040625 0.0201381 0.516052 -3.32484 0.591039 0.54961 0.170338
1634 1 0.387247 0.0198491 0.022294 0.313827 -3.32708 -0.0586301 0.31289 -0.00510007
1636 1 0.355385 0.0171871 0.0435413 0.472117 -3.35114 -0.0648206 0.415292 -0.155061
1715 1 0.383286 0.0432905 0.0454415 0.5828 -3.30943 -0.352759 -0.44112 -0.407651
40 1 0.420472 0.0249385 0.00237976 0.557773 -3.29187 -0.463219 -0.638522 0.018408
1717 1 0.412008 0.0445268 0.0231367 1.54059 -3.28531 0.573596 0.402376 0.782417
1638 1 0.448608 0.026658 0.0261338 0.642943 -3.33303 -0.429143 -0.467121 0.0187828
119 1 0.446217 0.048683 0.00331721 0.447662 -3.27051 0.106126 0.11083 0.299012
1637 1 0.419549 -0.000390756 0.0242697 0.444609 -3.37395 0.419147 0.182062 0.250129
39 1 0.452872 0.0034758 0.00450288 0.154631 -3.35228 0.00561682 0.00830336 0.27302
44 1 0.480961 0.027574 0.00781513 0.582049 -3.26076 -0.0568399 -0.288677 -0.172104
1641 1 0.482339 0.00483794 0.028869 7.02019 -3.27994 0.133671 0.00193074 -0.478206
1642 1 0.51005 0.0294456 0.0312899 6.41966 -3.29994 -0.339121 -0.030533 -0.489309
43 1 0.516234 0.00703136 0.00830554 0.889423 -3.33695 -0.535288 0.554449 -0.0935755
48 1 0.54493 0.0340737 0.0106827 2.61383 -3.25815 -1.12764 -0.692816 -0.160052
1645 1 0.540708 0.00842428 0.0330707 6.16572 -3.34999 -0.0208122 0.073243 0.0457758
47 1 0.575321 0.0118218 0.0129225 0.883876 -3.30639 -0.764926 -0.0986939 -0.272224
1646 1 0.5666 0.0348151 0.0341903 0.486787 -3.25791 0.127008 -0.422355 0.3653
52 1 0.600365 0.0364597 0.0160145 0.360115 -3.31175 -0.339708 0.455702 -0.43825
1649 1 0.598165 0.0108541 0.0369602 1.70295 -3.27918 0.0225302 0.61455 0.0931009
1650 1 0.62422 0.0378201 0.0397033 1.14388 -3.33803 0.679794 0.0944579 0.209362
51 1 0.631465 0.017458 0.0186359 1.53029 -3.3095 0.429699 -0.70782 0.00049285
56 1 0.660686 0.0412639 0.0198169 1.05641 -3.33311 -0.153549 -0.489881 0.330113
1653 1 0.658785 0.0152347 0.0438602 1.06032 -3.30747 -0.129181 0.166173 -0.522939
55 1 0.690519 0.0167344 0.0224013 1.07411 -3.29829 0.203628 0.688192 0.379401
54 1 0.694371 0.0416186 0.00051299 0.600635 -3.35431 -0.156314 0.195924 0.346654
60 1 0.720797 0.0413455 0.02576 0.755347 -3.27957 -0.25365 0.503392 -0.688702
57 1 0.725197 0.0205479 0.00442192 0.70718 -3.26189 -0.443731 0.294353 -0.159895
59 1 0.754208 0.0209047 0.0257188 1.05353 -3.33004 -0.228191 0.192407 0.628956
61 1 0.787056 0.0245957 0.00859843 1.0343 -3.27764 -0.234209 -0.00844843 -0.205237
1578 1 0.756224 0.00170046 0.00304914 1.99429 -3.27037 0.58278 -0.660737 0.526249
1584 1 0.786011 0.000853409 0.029159 0.46992 -3.32979 0.0787054 0.122293 -0.206556
63 1 0.813422 0.0270809 0.0330834 0.511246 -3.27331 -0.0545774 -0.303236 -0.556146
1582 1 0.81934 0.00552338 0.0107484 0.771354 -3.26933 -0.661594 -0.753111 0.255862
65 1 0.846524 0.0283398 0.0139789 0.436085 -3.33636 -0.0495194 0.438357 -0.291988
1588 1 0.846906 0.0044865 0.0350675 7.37392 -3.30631 0.0685148 -0.170034 -0.219084
67 1 0.872445 0.0296232 0.0371442 8.25793 -3.31251 1.00587 -0.149367 0.0141463
1586 1 0.881195 0.00862315 0.0146396 7.03925 -3.28987 -0.684922 -0.260428 0.559955
69 1 0.905169 0.0344454 0.0172004 6.94794 -3.24997 0.126833 0.0511066 0.674636
1590 1 0.922463 0.00505546 0.0227008 4.21102 -3.21861 -0.399683 -0.457139 0.704002
73 1 0.946316 0.0297955 0.0281352 7.04872 -3.28915 0.277766 0.042826 -0.533782
78 1 0.979763 0.0322008 0.00368205 6.63083 -3.32235 -0.94926 -0.0668117 -0.292052
79 1 0.978748 0.00825405 0.0280008 6.42683 -3.24161 -0.68649 0.126532 -0.95862
85 1 0.0463892 0.0523676 0.0016865 0.271543 -3.35712 0.0761211 0.00919811 0.106309
83 1 0.030158 0.0589513 0.0301427 3.08902 -3.28782 -0.166838 -0.517629 -0.195312
81 1 0.00371447 0.0571952 0.00647557 4.20784 -3.30788 0.24479 0.358039 -0.137474
82 1 0.0319069 0.0831044 0.00726718 3.13947 -3.34087 0.0368616 -0.0056842 0.146811
88 1 0.053591 0.0821092 0.0336538 2.64658 -3.24489 0.70136 0.658929 -0.145211
157 1 1.00038 0.0802621 0.0345706 7.37809 -3.23032 0.290095 0.0909877 -0.746517
89 1 0.0885936 0.0456346 0.998856 0.759985 -3.29157 -0.0557551 0.326701 -0.162483
91 1 0.115795 0.0491712 0.0240553 0.616876 -3.27122 -0.333977 -0.0300306 -0.278587
87 1 0.074727 0.0554441 0.0263565 1.17247 -3.31272 -0.621415 -0.427341 -0.0972738
92 1 0.100491 0.0782732 0.0312131 0.997653 -3.26737 -0.199282 0.157965 -0.565907
86 1 0.0755081 0.0764211 0.00383145 0.841797 -3.27755 -0.77721 0.121567 0.262564
90 1 0.114253 0.0700827 1.00004 1.31998 -3.27834 0.520023 0.510017 0.192272
96 1 0.141721 0.0744407 0.0258993 0.303939 -3.27582 -0.300608 0.0688666 0.14854
100 1 0.183755 0.0718387 0.0225674 1.01806 -3.26613 0.348899 -0.412724 -0.156933
104 1 0.2261 0.070468 0.016117 1.51097 -3.31765 -0.181229 -0.33258 -0.00448573
183 1 0.251085 0.094687 0.020697 2.08452 -3.18146 0.203361 -0.503536 -0.616889
1706 1 0.26684 0.0617184 0.0129669 8.10844 -3.333 -0.18074 -0.486563 0.226565
1698 1 0.213167 0.0726531 0.0450738 2.86819 -3.2485 -0.833076 0.559408 -0.550565
1702 1 0.254365 0.0729911 0.0404998 4.6012 -3.34465 0.191221 -0.438822 0.0726556
1712 1 0.293023 0.0574025 0.0382502 1.56223 -3.25403 -0.52758 0.243144 0.0740277
1789 1 0.292051 0.0855841 0.0163757 5.60505 -3.31087 0.380377 0.390101 0.0353086
1710 1 0.320066 0.0629075 0.0158952 2.30439 -3.27988 0.441837 0.100989 0.570057
1791 1 0.316836 0.0830101 0.042984 2.45225 -3.27573 0.269741 -0.135122 -0.948521
1793 1 0.348108 0.08691 0.0201462 1.17772 -3.36537 0.152431 0.285133 0.32581
1716 1 0.350133 0.0632305 0.0427448 0.399144 -3.32684 -0.205779 -0.00632696 -0.362705
1714 1 0.38195 0.0662925 0.0231589 0.653866 -3.32897 -0.24393 0.107801 -0.0707374
1795 1 0.375762 0.0900677 0.0459955 0.950427 -3.32696 0.38378 0.0193977 -0.538874
120 1 0.413661 0.0686543 0.00147589 0.615891 -3.25058 -0.0559282 0.27428 0.475417
1797 1 0.404417 0.0919227 0.0219086 2.87271 -3.24067 0.599177 -0.18015 1.21271
1718 1 0.437919 0.069399 0.0266697 1.21637 -3.37573 0.203529 0.124988 -0.097871
1799 1 0.432142 0.0923924 0.0462063 1.75395 -3.3257 0.542561 0.242989 0.136008
1721 1 0.473099 0.0510772 0.0282885 0.881815 -3.33493 0.371044 0.109005 0.071451
124 1 0.471647 0.071917 0.0054889 1.03086 -3.33244 0.305707 0.298123 0.015741
123 1 0.50615 0.0506739 0.00914723 1.58128 -3.32588 0.577217 0.783451 -0.0266034
1722 1 0.501955 0.0766158 0.0278802 1.7429 -3.29864 -0.265685 -0.696654 0.596436
1725 1 0.534563 0.0557152 0.0324996 0.574635 -3.33211 -0.0806733 -0.120457 -0.218446
128 1 0.534356 0.0784134 0.0105929 0.38232 -3.31311 -0.179863 -0.0846817 -0.577195
1726 1 0.563267 0.0810218 0.0336783 0.626231 -3.29234 -0.232028 0.0171786 0.274005
127 1 0.566957 0.0597284 0.0122894 1.20311 -3.29496 0.599092 -0.367381 0.00914063
132 1 0.595504 0.0834482 0.0154194 0.303525 -3.35685 0.0968671 -0.093012 -0.152088
1729 1 0.593081 0.0589527 0.0377169 0.477821 -3.2995 0.668365 0.16317 -0.501429
1730 1 0.621527 0.0837817 0.0398393 0.265284 -3.30749 0.0169466 0.127226 -0.0053233
131 1 0.6267 0.0622554 0.0191599 0.77177 -3.32345 -0.055494 -0.358211 -0.452325
136 1 0.653812 0.086494 0.0207591 0.615717 -3.34765 0.309673 -0.026544 -0.0930956
1733 1 0.654641 0.0616205 0.0412729 0.574564 -3.29078 0.319388 0.0605646 -0.0593973
135 1 0.689407 0.0639553 0.0233156 0.551655 -3.35235 -0.182911 -0.00739913 -0.253378
134 1 0.689165 0.0871904 0.00178791 0.729007 -3.36771 -0.265944 0.0523605 -0.139502
140 1 0.716991 0.0901474 0.0245152 0.525089 -3.29633 -0.233469 0.0824422 0.187085
137 1 0.722351 0.0667173 0.00447622 0.509856 -3.3374 -0.35544 -0.166255 -0.349943
58 1 0.753549 0.0457904 0.00528275 0.450872 -3.31036 -0.275589 -0.0359769 0.0960892
64 1 0.780203 0.0480587 0.0274099 1.38048 -3.32802 0.0764044 -0.187011 0.807308
139 1 0.749388 0.0691852 0.0264761 0.817238 -3.28051 -0.264074 -0.484705 0.51646
138 1 0.748927 0.091412 0.00653004 0.625908 -3.28075 0.0306922 0.33654 -0.615462
144 1 0.776029 0.0926391 0.031374 0.723427 -3.2868 -0.237045 0.382319 -0.101949
141 1 0.782012 0.0724201 0.00930264 0.937617 -3.27672 0.17918 -0.122773 -0.592038
62 1 0.814234 0.0509758 0.0115083 0.323442 -3.35203 0.370285 -0.0277904 -0.0878926
143 1 0.807989 0.0737334 0.0336899 0.704735 -3.30154 0.211049 -0.524357 -0.018078
68 1 0.842287 0.0508438 0.0365566 0.504689 -3.25279 -0.0968063 0.245443 -0.533382
145 1 0.839582 0.0762955 0.0155101 0.875363 -3.34403 0.250285 -0.102084 -0.709457
66 1 0.873762 0.0545492 0.0164412 0.349415 -3.30438 -0.383517 0.23128 0.317233
147 1 0.866778 0.0761176 0.0387661 0.501756 -3.32793 0.914941 0.124303 -0.303437
72 1 0.901124 0.0538526 0.0415199 7.56593 -3.34304 0.124631 -0.027522 -0.264042
149 1 0.899258 0.0810888 0.0176356 0.894101 -3.34794 -0.629987 -0.140036 0.482221
151 1 0.926716 0.0801723 0.0434212 6.32872 -3.30284 0.270853 -0.248977 -0.250832
70 1 0.931059 0.0605241 0.0208246 6.76582 -3.31209 0.131453 -0.217698 -0.027379
74 1 0.973884 0.0542158 0.0279876 4.4489 -3.29135 -0.15941 0.008001 0.226737
153 1 0.958924 0.0839139 0.0241701 6.95755 -3.23023 0.249125 0.0831759 0.180124
30555 1 0.99082 0.0892144 0.00622635 9.4287 -3.17741 0.120466 0.155084 0.167287
30476 1 0.964406 0.0667879 0.00134721 6.58735 -3.20326 -0.200369 -0.632846 0.0081786
158 1 0.026272 0.104848 0.0340113 6.85835 -3.26485 -0.0269344 0.361296 -0.551043
30560 1 0.0172182 0.113793 0.00481723 10.4186 -3.28095 0.282452 -0.12449 0.421077
161 1 0.0554683 0.128721 0.0372671 5.23081 -3.30422 0.0450775 0.0261035 -0.151011
30639 1 0.0463427 0.138328 0.00802419 8.89108 -3.31892 0.358851 -0.0924036 -0.222037
237 1 0.0140895 0.1364 0.0253228 7.91451 -3.27392 -0.158204 -0.369338 0.54139
165 1 0.059616 0.107755 0.0104998 7.07083 -3.342 -0.350901 -0.143205 0.0527944
167 1 0.0839428 0.105539 0.036452 5.61522 -3.3115 -0.0924009 0.434442 -0.0210259
166 1 0.0877438 0.131169 0.0158995 7.78816 -3.34238 -0.0244718 0.161054 -0.0116592
169 1 0.10001 0.100303 0.00785075 3.08172 -3.29978 0.226272 0.029912 -0.100618
172 1 0.111138 0.131816 0.0403239 3.95314 -3.27017 -0.0341805 0.256581 0.469776
171 1 0.127038 0.103469 0.0324408 1.62468 -3.3216 -0.0423639 0.0617292 0.145782
176 1 0.132949 0.130232 0.0165516 4.67733 -3.09244 -0.0815056 -0.436173 0.344491
173 1 0.14177 0.0985127 0.00355077 6.13153 -3.30372 -0.651211 -0.252981 0.107413
175 1 0.167931 0.0972956 0.028755 4.38198 -3.24832 -0.00569366 1.24253 0.363034
180 1 0.173231 0.127429 0.0137966 8.89139 -3.20936 0.40588 -0.0786083 0.228454
1774 1 0.153389 0.127397 0.0415205 4.28126 -3.28398 0.223287 0.229605 -0.38734
1778 1 0.195842 0.12761 0.0365937 7.80219 -3.22114 0.0668224 -0.347089 -0.558334
179 1 0.208306 0.0999969 0.0204078 4.28686 -3.25481 -0.352183 -0.163147 0.372975
1782 1 0.235616 0.121066 0.0240984 3.07506 -3.19023 0.187589 1.18038 -0.117992
1786 1 0.280453 0.117335 0.0186454 2.05393 -3.31184 -0.0380422 0.501865 -0.127831
1869 1 0.307322 0.144409 0.0210235 0.772619 -3.25632 0.107977 -0.353611 -0.228786
1790 1 0.322171 0.112594 0.0180003 5.88934 -3.32419 -0.370944 -0.207433 -0.413783
1785 1 0.279777 0.0993948 0.0419765 6.6551 -3.29122 -0.168171 -0.379431 0.377881
1792 1 0.302776 0.124432 0.0440785 7.06587 -3.245 0.482653 -0.527033 -0.0514786
1873 1 0.349747 0.136767 0.0202091 6.21147 -3.222 -0.692407 0.329549 -0.470236
1794 1 0.375848 0.114714 0.0206965 1.4588 -3.24354 -0.265098 -0.717153 0.0387264
1796 1 0.344272 0.109199 0.0421719 2.80153 -3.30566 -0.395082 0.0723301 0.206421
1875 1 0.37117 0.132756 0.0446505 3.08091 -3.24834 -0.0754226 1.13296 0.111899
199 1 0.440247 0.0946813 0.00613079 1.53645 -3.34046 0.0379509 -0.267285 -0.739834
200 1 0.408383 0.115255 0.00346054 1.47224 -3.26441 0.389688 0.28857 -0.91399
1877 1 0.406338 0.137387 0.0246056 1.4617 -3.2721 -0.530723 0.634628 -0.220473
1798 1 0.434917 0.116228 0.0266744 0.804116 -3.23924 0.82586 0.060172 -0.242085
279 1 0.43548 0.141814 0.00287698 0.3845 -3.29738 0.535776 -0.386193 0.227716
1800 1 0.404497 0.115039 0.044966 0.97087 -3.26705 -0.403927 -0.274569 0.530974
1801 1 0.467991 0.0939151 0.0277892 1.21192 -3.3267 -0.273504 0.380669 0.431265
204 1 0.467007 0.120331 0.00480158 0.845969 -3.32271 -0.241979 0.0495196 0.400184
1881 1 0.461383 0.142569 0.0282084 0.640973 -3.3118 -0.104407 -0.0472442 -0.500233
1802 1 0.492518 0.122484 0.0299099 1.74071 -3.29562 0.639576 -0.47301 -0.21783
203 1 0.498286 0.0992508 0.00879014 1.20886 -3.27265 0.638333 0.0663833 -0.299049
1805 1 0.528994 0.100003 0.0313697 0.29025 -3.30451 -0.185558 0.142731 0.271134
208 1 0.527866 0.123067 0.0108636 0.510595 -3.34733 -0.140668 0.0267894 -0.45314
1806 1 0.554771 0.12349 0.0334844 1.75062 -3.30474 0.587872 0.384585 0.391616
207 1 0.561633 0.103136 0.01099 0.880297 -3.25568 0.266779 -0.0908139 0.544133
1809 1 0.590791 0.1058 0.0383972 1.04035 -3.34876 -0.287967 -0.00695478 -0.396102
212 1 0.590722 0.127918 0.0156289 0.385731 -3.33805 -0.231102 0.161186 -0.228979
211 1 0.621957 0.108349 0.0171249 0.465949 -3.3175 0.294913 -0.352761 0.110806
1810 1 0.616376 0.1303 0.0393765 0.368709 -3.30734 -0.243456 0.182321 0.228156
1813 1 0.64831 0.108795 0.0425453 0.636475 -3.31871 0.174874 -0.441049 -0.3149
216 1 0.648356 0.132387 0.0211619 1.14783 -3.30544 0.241613 0.0393392 -0.839482
215 1 0.680957 0.111353 0.0216435 0.60328 -3.3287 0.378837 -0.20447 -0.0303762
1814 1 0.677097 0.132014 0.0424787 1.03821 -3.27928 0.179814 0.615714 0.203479
220 1 0.711086 0.135702 0.0225875 1.16799 -3.33388 -0.222468 -0.253941 0.496193
217 1 0.715088 0.112422 0.0023286 0.593291 -3.37547 0.0539195 0.100151 -0.225914
219 1 0.744252 0.114778 0.0258935 0.864151 -3.35562 -0.433349 -0.32933 0.52645
218 1 0.744988 0.136575 0.00501943 0.776248 -3.27793 -0.532867 0.425135 -0.0102491
224 1 0.769773 0.138378 0.0301394 0.293649 -3.32382 -0.0979938 0.246226 -0.185212
221 1 0.775042 0.116688 0.0061362 0.694259 -3.26005 -0.0389143 -0.186576 0.214804
142 1 0.806588 0.0978678 0.0113033 0.456021 -3.33845 0.450457 -0.199538 -0.2058
148 1 0.837909 0.0979952 0.0359309 1.11901 -3.26814 -0.696826 0.151671 0.0997867
223 1 0.801133 0.11834 0.0333175 0.536177 -3.3429 0.494352 -0.0858233 -0.256942
225 1 0.834541 0.122837 0.011937 0.354147 -3.34672 0.0363108 -0.0442955 0.12506
227 1 0.860439 0.124255 0.0366106 0.883749 -3.31817 0.019341 0.301273 0.290684
146 1 0.86654 0.10345 0.0166321 1.26236 -3.28269 0.0665425 -0.771363 -0.757949
152 1 0.894492 0.103439 0.0409342 1.15516 -3.28959 -0.397385 -0.648635 -0.499409
150 1 0.927313 0.102666 0.022048 1.91997 -3.23964 -0.218542 0.853882 -0.0762423
229 1 0.89518 0.124901 0.0180669 0.844833 -3.29886 -0.132654 0.416814 -0.125853
231 1 0.920514 0.128816 0.0409355 1.22021 -3.27818 0.584316 -0.185723 0.223733
156 1 0.953924 0.106444 0.0446103 7.84485 -3.2841 0.267948 -0.00578529 0.20337
154 1 0.982523 0.111179 0.0251495 7.47247 -3.241 1.05067 -0.15682 0.0968789
233 1 0.95255 0.131159 0.0230207 0.565474 -3.30295 -0.0423298 0.302658 -0.263031
30556 1 0.958436 0.107775 0.00132598 0.415205 -3.28627 0.26522 -0.069748 -0.320108
30635 1 0.985479 0.13336 0.00328592 0.490695 -3.30879 -0.319062 0.263823 -0.356774
238 1 0.0413892 0.160731 0.0286191 8.39728 -3.2896 -0.0196941 -0.283468 -0.125171
30640 1 0.0136177 0.159075 0.00394812 0.10812 -3.32761 0.0181063 0.22373 0.145906
30719 1 0.0426242 0.185848 0.00457352 3.04914 -3.21382 -1.00805 -0.708284 0.559492
317 1 0.00896862 0.18152 0.0261609 0.550915 -3.31154 0.173431 -0.712726 -0.420873
241 1 0.0688382 0.182902 0.0291163 5.70605 -3.27278 0.18271 0.900528 0.784331
162 1 0.0828171 0.154027 0.0414058 6.04315 -3.26774 0.230678 0.109989 -0.586619
30564 1 0.075117 0.162144 0.0103935 11.1229 -3.07106 -0.266872 -0.703543 0.752369
245 1 0.101556 0.186594 0.010814 10.287 -3.31055 0.37296 0.2513 0.117561
247 1 0.108057 0.178623 0.0444121 6.02448 -3.19007 -0.713151 0.407058 -0.0624603
249 1 0.114998 0.158242 0.018905 9.3546 -3.32531 0.0828235 -0.0459168 0.249433
251 1 0.138749 0.158254 0.0463798 5.91908 -3.33723 -0.369736 -0.400838 0.177043
250 1 0.138724 0.183883 0.0293238 8.12237 -3.08816 0.0265202 0.0436718 -0.858176
255 1 0.158451 0.157417 0.0203085 6.33928 -3.06725 -0.75238 0.198069 -0.467915
260 1 0.179947 0.185231 0.0231996 8.4521 -3.20124 -0.256253 0.200246 0.369538
1857 1 0.179112 0.156368 0.0426459 3.27696 -3.13318 0.302783 0.201388 0.860008
259 1 0.197673 0.156656 0.0175959 12.9637 -3.14368 0.653172 -0.190466 0.0518983
264 1 0.224217 0.17594 0.00537485 7.74687 -3.21451 0.260096 -0.591798 -0.00721416
1861 1 0.228375 0.148851 0.034119 8.19782 -3.20148 -0.519213 0.120807 -0.403037
1858 1 0.210133 0.178473 0.0398167 6.19784 -3.32341 0.312397 0.19485 0.123848
1865 1 0.266987 0.147899 0.0251021 1.28567 -3.29535 -0.149278 -0.380387 -0.0880469
268 1 0.266455 0.170948 0.00340525 0.955252 -3.21762 -0.800407 -0.0490464 -0.520438
1862 1 0.250631 0.176717 0.0305806 1.62722 -3.32014 -0.0964193 0.446767 0.0297466
1866 1 0.292476 0.172828 0.0258969 0.459143 -3.24804 -0.250229 0.361703 0.600455
1870 1 0.33224 0.169789 0.0223124 1.35608 -3.28859 0.731176 -0.390776 -0.052577
1871 1 0.330826 0.147118 0.0449341 2.77128 -3.28109 0.504036 0.143628 0.318323
1874 1 0.376158 0.159752 0.0183695 10.1069 -3.27574 -0.150488 0.483724 0.767721
1953 1 0.360549 0.192123 0.0264048 0.820953 -3.30649 -0.336407 0.104281 -0.324524
280 1 0.407306 0.162084 0.999852 0.436481 -3.23067 -0.547228 0.364639 -0.13095
1957 1 0.401141 0.185225 0.0235102 6.1839 -3.25944 -0.242381 0.0313664 -0.479963
359 1 0.431951 0.187002 0.00330447 0.806818 -3.32095 0.228 0.335664 -0.312739
1878 1 0.430472 0.164327 0.0253852 0.489505 -3.25939 0.530673 -0.533513 -0.314604
1961 1 0.460115 0.191011 0.0263645 1.61099 -3.31817 -0.307136 -0.642937 0.379947
1880 1 0.397116 0.162113 0.0453739 7.51869 -3.37516 -0.150199 -0.370928 -0.0989396
283 1 0.497934 0.14451 0.00836719 1.20929 -3.35313 -0.426647 0.227874 -0.342778
284 1 0.466076 0.167432 0.00473624 0.839238 -3.36241 -0.233973 -0.284997 0.312075
1882 1 0.488835 0.165343 0.0309319 2.13222 -3.33753 0.553961 0.532279 -0.398259
363 1 0.49263 0.192185 0.00828943 0.631295 -3.265 -0.335377 -0.557102 -0.268494
1885 1 0.524291 0.145538 0.0329022 0.763117 -3.30626 -0.336602 -0.0848531 -0.0924415
288 1 0.524318 0.170045 0.00908398 0.539172 -3.27583 -0.765286 -0.276146 -0.018314
287 1 0.55695 0.147645 0.0122024 0.307809 -3.31853 -0.092693 0.0337159 -0.214941
1886 1 0.548681 0.169787 0.0317451 2.7944 -3.27395 0.636769 0.454289 0.972747
1889 1 0.581225 0.149843 0.0372251 1.27944 -3.36036 0.414303 0.0302132 -0.0990977
292 1 0.585385 0.173444 0.0152901 0.539978 -3.25873 -0.451131 0.00731518 0.0168875
291 1 0.616565 0.154833 0.0181263 1.33323 -3.25653 0.153697 -1.07051 -0.531625
1890 1 0.611352 0.174254 0.039138 0.480853 -3.3563 0.211218 0.29619 0.600897
1893 1 0.645804 0.154547 0.0408402 0.525097 -3.33096 -0.393648 0.145459 0.315845
296 1 0.644624 0.176528 0.0182305 0.592602 -3.29427 0.248099 0.357967 0.208467
295 1 0.676908 0.158118 0.0216099 1.22197 -3.34152 0.391142 -0.397873 -0.0458837
1894 1 0.673901 0.179076 0.0447214 0.563493 -3.31957 0.0459058 -0.215436 -0.220258
300 1 0.705351 0.181374 0.025152 0.527391 -3.2595 0.172625 -0.891571 -0.10625
297 1 0.712308 0.158632 0.00346484 0.738608 -3.3381 -0.31982 0.139287 -0.0931476
299 1 0.738223 0.159938 0.0293647 1.42368 -3.29627 0.0296003 0.165472 -1.03595
298 1 0.738141 0.183062 0.00479222 0.289219 -3.31158 -0.224793 -0.049307 0.14192
304 1 0.764537 0.185419 0.0289123 0.63779 -3.34071 -0.0250701 0.00546521 -0.389728
303 1 0.795475 0.163817 0.0333042 1.03412 -3.27435 -0.230732 0.217631 -0.754217
302 1 0.800113 0.188317 0.010478 1.17117 -3.36005 -0.616005 3.46594e-05 0.12422
301 1 0.770252 0.162156 0.00741963 0.343114 -3.35759 -0.0667062 0.14814 0.311444
222 1 0.801442 0.14117 0.00979048 0.433377 -3.30757 -0.0115042 0.496927 0.204578
226 1 0.861408 0.148369 0.0141157 0.568902 -3.3348 0.434064 -0.544837 0.275328
228 1 0.827588 0.144976 0.0341839 0.583588 -3.31991 0.376835 -0.559957 -0.0543171
305 1 0.830168 0.166769 0.012675 0.626393 -3.31024 -0.579484 0.330526 -0.0137119
307 1 0.856892 0.170191 0.0365891 0.229841 -3.34499 0.0614374 -0.301379 0.106332
232 1 0.889144 0.148136 0.0391745 0.321101 -3.34589 -0.205627 0.600206 -0.0825776
230 1 0.92069 0.152093 0.0188411 0.744511 -3.3512 0.416501 0.203322 0.461674
309 1 0.888874 0.173233 0.0166789 0.41589 -3.3373 0.051357 -0.103991 0.229007
311 1 0.916399 0.174224 0.04388 1.96444 -3.33621 -0.0330546 -0.329404 -0.868963
236 1 0.950417 0.154065 0.0440981 0.562964 -3.30614 -0.138893 -0.255791 -0.206762
234 1 0.980555 0.156961 0.0232452 0.612433 -3.33902 0.0956385 -0.102385 0.211629
313 1 0.950152 0.178045 0.0222058 1.05188 -3.33905 -0.691096 -0.328166 -0.377068
30636 1 0.952324 0.154506 0.997999 1.10127 -3.37798 0.168187 -0.0695809 0.589053
30715 1 0.980778 0.179573 0.00113868 0.17647 -3.28734 -0.209429 -0.0856758 0.382569
242 1 0.0668676 0.209566 0.00810556 1.79922 -3.20264 0.664538 -0.458648 -0.365303
318 1 0.0372234 0.205826 0.0276041 0.409257 -3.26039 -0.0830999 -0.201592 0.371535
323 1 0.0641894 0.229369 0.029261 0.51352 -3.29699 -0.223175 0.469233 0.669428
321 1 0.0351134 0.228308 0.00502234 0.545642 -3.30207 -0.25996 0.476493 -0.0122289
30720 1 0.00891054 0.204221 0.00442998 0.51882 -3.31377 -0.227825 0.22185 -0.196283
397 1 0.00335275 0.227833 0.0249818 1.16802 -3.33826 -0.163869 -0.327956 0.118864
248 1 0.0948645 0.209475 0.0315534 7.33661 -3.31207 0.178117 -0.408937 0.362959
246 1 0.128381 0.211501 0.0138239 8.40596 -3.31201 0.195469 -0.210219 -0.63372
325 1 0.100109 0.232686 0.0108174 2.04394 -3.24366 -0.59766 0.133731 0.161454
327 1 0.127543 0.23368 0.0375304 9.98026 -3.34219 -0.178528 0.0710116 -0.355901
331 1 0.159863 0.21145 0.0306292 8.28647 -3.15047 0.767667 0.323432 -0.0181699
333 1 0.172639 0.207632 0.0034214 6.83787 -3.2474 -0.446151 0.266109 0.613851
335 1 0.194747 0.209349 0.0461467 6.33209 -3.25438 -0.456541 -0.706653 0.0118174
334 1 0.193986 0.233702 0.0139805 5.57823 -3.27598 0.342836 -0.248094 0.322367
339 1 0.211858 0.202448 0.0129448 6.78159 -3.1568 -0.94113 0.415507 0.298779
344 1 0.235915 0.22743 0.0121626 0.572953 -3.2488 -0.140977 0.773247 0.123064
343 1 0.251009 0.200033 0.00907545 0.958379 -3.23282 0.649223 -0.44911 -0.276483
1941 1 0.233779 0.206377 0.0380206 1.0078 -3.27401 0.41447 -0.384863 -0.00482313
1942 1 0.258209 0.231523 0.037688 1.00684 -3.29603 0.937565 -0.223949 0.000550398
340 1 0.216691 0.233972 0.0406013 2.73208 -3.24935 -0.0290203 0.588043 -0.0251753
347 1 0.293003 0.193606 0.0020885 1.01436 -3.24013 -0.487255 0.772045 0.283657
348 1 0.277075 0.224133 0.00716422 0.76295 -3.29328 0.243423 0.0517672 0.668777
1945 1 0.277892 0.202692 0.0345269 1.39367 -3.33862 -0.577936 0.0012155 -0.578511
1946 1 0.304136 0.226655 0.0335652 0.589654 -3.34879 -0.618522 0.320273 -0.0064984
1949 1 0.318024 0.198077 0.0271697 0.714354 -3.33078 0.195457 0.238583 0.191614
352 1 0.318147 0.222234 0.003943 1.14922 -3.29347 0.342524 -0.696307 0.257117
1950 1 0.344595 0.224009 0.0298367 0.927633 -3.31589 0.272368 -0.622347 -0.184002
356 1 0.360666 0.215196 0.00304365 0.463176 -3.34567 -0.331629 -0.225929 -0.289518
1954 1 0.387462 0.216173 0.026491 0.872222 -3.23549 -0.754278 0.490376 0.330277
435 1 0.387048 0.23871 0.00522202 0.914883 -3.27479 0.153695 0.367017 -0.395792
1958 1 0.425434 0.210547 0.0242689 6.94864 -3.25405 0.736037 -0.0422043 0.0692085
364 1 0.459482 0.21358 0.00556841 0.791395 -3.24972 -0.278108 -0.724839 -0.794561
2041 1 0.453551 0.235893 0.0238967 7.50497 -3.28561 0.0345812 0.430418 0.478314
1962 1 0.486487 0.215104 0.0294204 0.759021 -3.2555 0.266093 -0.206392 -0.0616706
1965 1 0.518308 0.192522 0.0319479 0.379095 -3.32496 0.0515868 -0.209506 -0.132279
368 1 0.519119 0.213844 0.00894611 1.03933 -3.28351 0.738931 0.926979 0.214079
367 1 0.5524 0.192962 0.0126538 0.842836 -3.30747 -0.0171067 0.708791 0.0672015
1966 1 0.546632 0.218215 0.0336435 0.498118 -3.3023 0.505983 -0.713485 -0.280118
1969 1 0.579973 0.196565 0.0384403 1.28316 -3.31638 -0.307739 -0.214408 -0.642668
372 1 0.580321 0.218046 0.0142965 0.457199 -3.35865 -0.302513 0.134682 0.030331
371 1 0.612942 0.197173 0.0178032 0.343348 -3.32914 -0.0935504 0.100647 -0.135329
1970 1 0.607401 0.220473 0.0382279 0.338343 -3.26329 -0.291252 -0.372014 -0.0825634
1973 1 0.642406 0.199229 0.0412002 0.700029 -3.35901 -0.383743 -0.292857 -0.080337
376 1 0.639834 0.221443 0.0194889 0.354117 -3.33221 -0.00563504 0.375672 -0.0890238
1974 1 0.666129 0.224237 0.0447617 0.491197 -3.29939 0.217015 0.146027 -0.623177
375 1 0.675153 0.199996 0.0213 1.50837 -3.30435 -0.661307 0.63163 0.168502
379 1 0.728887 0.204609 0.0258152 1.78646 -3.28831 0.782168 0.789084 -0.0160907
380 1 0.699383 0.228263 0.0247214 0.834648 -3.3473 -0.148708 -0.262145 0.0430127
377 1 0.704636 0.20295 0.00107856 0.752651 -3.27938 0.187268 0.583977 0.303436
378 1 0.729458 0.230143 0.0051777 0.775058 -3.37772 0.0760061 -0.114395 -0.243159
384 1 0.759268 0.230676 0.0274967 0.711557 -3.37878 0.0913996 -0.204442 0.140609
381 1 0.763177 0.207987 0.00512045 1.19672 -3.34504 0.26427 0.471852 0.787885
383 1 0.795591 0.211517 0.0311258 1.25019 -3.27873 -0.983193 -0.202603 -0.0185443
382 1 0.792319 0.233356 0.0095211 0.407014 -3.33294 -0.305787 -0.0663708 -0.203567
308 1 0.826954 0.191436 0.0351885 1.44455 -3.27406 -0.361917 -0.536733 -0.348791
306 1 0.85638 0.19276 0.013916 0.165116 -3.29639 -0.00302865 -0.0375098 -0.1194
385 1 0.82629 0.213644 0.0119195 0.541999 -3.27921 -0.316992 -0.244579 -0.409866
387 1 0.851474 0.216572 0.0352351 0.640664 -3.2796 0.206141 -0.0959679 0.444236
312 1 0.883147 0.195396 0.038572 0.168426 -3.31833 0.0568375 -0.169747 -0.595285
310 1 0.915492 0.198646 0.0169289 0.935678 -3.34985 -0.12755 -0.231186 0.348161
389 1 0.881766 0.21796 0.0149987 0.423531 -3.32421 0.504229 -0.212741 0.202374
391 1 0.909983 0.220527 0.0401715 0.228418 -3.31767 -0.434064 -0.0849263 -0.0106588
316 1 0.941719 0.199386 0.0429296 0.599517 -3.32961 -0.0109048 -0.0832849 0.116067
393 1 0.940942 0.222978 0.0206188 0.420984 -3.30145 0.464184 -0.335621 0.0188199
314 1 0.976787 0.202802 0.0234681 0.708376 -3.28314 -0.56302 -0.0231263 -0.524604
30716 1 0.94869 0.198704 0.998512 0.893395 -3.33136 -0.188393 0.469802 0.094092
324 1 0.0316634 0.249635 0.0288739 0.79365 -3.34158 -0.0103279 0.186566 0.0316693
322 1 0.0632905 0.252082 0.00746754 0.727177 -3.30146 -0.176253 0.321267 0.579245
403 1 0.0591303 0.275155 0.0295451 0.22011 -3.34005 -0.10389 0.182207 0.232313
401 1 0.0308929 0.27359 0.00712578 1.17575 -3.29457 0.371316 0.164161 -0.708051
398 1 0.0019412 0.250629 0.00387315 0.597458 -3.33919 0.333232 -0.535217 -0.313594
328 1 0.0903698 0.253508 0.0319135 0.994778 -3.33021 0.381144 0.166952 0.226084
326 1 0.123852 0.257532 0.0130339 0.293784 -3.28317 -0.136517 0.455392 0.243207
405 1 0.0907425 0.277585 0.01097 0.574914 -3.26811 0.377534 0.381576 0.271765
407 1 0.119121 0.281013 0.0361313 0.942837 -3.33233 -0.0221172 0.0139902 -0.941218
329 1 0.155488 0.238933 0.0158066 8.4473 -3.26213 -0.340941 -0.512635 -0.124887
336 1 0.172898 0.235486 0.0462884 13.5912 -3.24739 0.332985 -0.242932 -0.248607
332 1 0.15207 0.260955 0.0369378 6.65148 -3.27363 -0.170961 -0.222272 0.136875
330 1 0.182899 0.263804 0.0173297 7.99062 -3.20768 -0.318724 0.0360937 0.168135
409 1 0.150371 0.282374 0.0138401 1.10796 -3.29107 -0.309224 0.684832 0.36927
411 1 0.17507 0.286397 0.0391541 5.93735 -3.28516 0.546678 0.122472 -0.123018
415 1 0.201172 0.261995 0.0455135 7.43825 -3.34771 0.0739405 0.162577 0.0495646
417 1 0.221478 0.259035 0.015989 0.729808 -3.25246 0.531514 -0.51095 0.25268
419 1 0.245208 0.259174 0.0426836 1.26694 -3.3063 -0.262067 0.681331 -0.0678505
418 1 0.24955 0.283087 0.0182584 0.374776 -3.25391 -0.425653 0.224748 -0.0193627
423 1 0.262336 0.253097 0.0129743 0.445042 -3.35354 0.135277 -0.045197 0.171124
428 1 0.288377 0.27875 0.0187011 2.32446 -3.29251 0.851795 -0.23972 -0.685849
2025 1 0.28797 0.255817 0.0390433 0.564479 -3.36982 -0.00744344 -0.0791035 0.031946
427 1 0.305396 0.250033 0.00916715 0.712303 -3.26805 -0.470903 -0.0454894 0.561763
432 1 0.331776 0.272383 0.0144109 2.07821 -3.30387 -0.0966175 0.770142 -0.362663
2029 1 0.330996 0.252021 0.0362759 0.413007 -3.31325 -0.451428 0.128925 0.3062