ITEM: TIMESTEP
16000
ITEM: NUMBER OF ATOMS
32000
ITEM: BOX BOUNDS pp pp pp
6.3622786635930169e+00 7.4637721336407026e+01
-3.0476487885859882e+00 8.4047648788586017e+01
-4.8777100605617179e+00 8.5877710060561029e+01
ITEM: ATOMS id type xs ys zs c_csym c_peratom fx fy fz
4 1 0.0097009 0.0369057 0.0321768 7.59397 -3.27972 -0.276647 -0.0255693 -0.308243
3 1 0.0220591 0.00626665 0.0268896 0.947296 -3.29105 -0.117775 0.0726293 -0.400364
8 1 0.0491242 0.0300297 0.0248745 1.06887 -3.29841 -0.207423 0.221378 0.481831
12 1 0.0878068 0.0252964 0.0210782 0.733533 -3.24397 0.460926 -0.209221 0.393273
1609 1 0.0883296 0.00121204 0.0462963 0.329771 -3.30861 0.451715 0.0616649 -0.175606
1610 1 0.117438 0.0275862 0.0470615 1.15691 -3.32442 -0.426415 -0.480384 0.102395
16 1 0.128691 0.0194814 0.0195938 1.2906 -3.34392 0.451877 -0.159359 -0.244112
1614 1 0.158591 0.0210959 0.0419496 1.05971 -3.31004 -0.740782 0.104648 0.0184613
95 1 0.157651 0.0451028 0.0184046 0.753075 -3.26784 -0.807898 -0.670862 -0.233804
20 1 0.168351 0.0112851 0.0132319 7.92737 -3.31107 0.216736 0.471096 0.0245845
1697 1 0.182261 0.0466406 0.0424377 0.685826 -3.29497 0.210615 -0.197564 -0.0483792
99 1 0.195764 0.036651 0.0138048 7.03774 -3.29333 0.349477 0.0335858 0.18068
24 1 0.224879 0.0117804 0.0170699 0.501813 -3.27385 0.363925 0.231443 -0.43432
1618 1 0.197041 0.0141605 0.0363924 5.90915 -3.2371 -0.565073 -0.264431 0.450326
1701 1 0.221604 0.037548 0.0369412 7.57887 -3.30955 0.308769 0.393779 0.259658
1622 1 0.253054 0.0118548 0.0412047 1.01907 -3.27475 0.205599 0.148271 -0.244672
103 1 0.25357 0.0379725 0.0191603 1.24469 -3.36302 0.0914974 -0.19261 -0.176765
28 1 0.283616 0.0140611 0.0192936 1.13228 -3.29723 -0.349819 0.0402886 0.531305
1705 1 0.279465 0.0365985 0.045026 2.90743 -3.19481 0.763995 0.0584003 -0.631742
1626 1 0.308502 0.0137275 0.0463582 0.573688 -3.30175 0.221223 0.17311 -0.058357
1709 1 0.307044 0.0403274 0.0233242 0.740964 -3.30451 -0.00274057 -0.294967 -0.255546
107 1 0.283216 0.0381647 0.997101 0.559012 -3.33637 0.169552 0.415787 0.281866
1630 1 0.337629 0.0179284 0.025034 0.994087 -3.35925 0.263494 -0.206693 -0.0537399
1713 1 0.366468 0.040826 0.0255522 0.284948 -3.29932 -0.239511 0.124136 0.145616
36 1 0.370716 0.017606 0.0042751 0.472827 -3.30912 -0.275874 -0.0757375 0.222259
32 1 0.312184 0.0149266 -0.000905268 0.743747 -3.19958 0.877869 0.303143 0.830799
115 1 0.398166 0.0418816 0.00604541 0.588975 -3.30498 0.211496 0.0496676 -0.283257
1634 1 0.400175 0.0190759 0.0296773 0.963286 -3.30565 -0.184291 0.00970857 -0.380162
40 1 0.430871 0.021253 0.00768455 1.21776 -3.27691 -0.717668 0.795658 -0.232952
1717 1 0.425616 0.0452636 0.0290857 0.710157 -3.31933 0.641946 -0.411482 -0.177531
119 1 0.456635 0.0502854 0.00491222 2.51518 -3.25556 -0.311687 -0.313506 0.491602
1638 1 0.456158 0.0208178 0.0320666 1.66361 -3.20993 -0.270258 0.954078 0.634929
44 1 0.48218 0.0262625 0.0091686 2.53887 -3.28238 0.823452 0.124582 0.258529
1721 1 0.481777 0.0504814 0.0298137 1.66973 -3.32906 -0.206384 -0.569591 0.559158
1642 1 0.511788 0.0273805 0.0344391 6.19666 -3.25981 -0.300129 -0.0514976 -0.544793
123 1 0.512625 0.0521387 0.00983833 0.773526 -3.3013 0.142519 -0.532872 0.0272254
48 1 0.541944 0.0286871 0.013944 0.681421 -3.35695 0.0389122 -0.212748 -0.206731
1645 1 0.538172 0.00318762 0.0385645 6.64323 -3.24116 0.5908 0.253286 0.370189
1725 1 0.541353 0.0505664 0.0363496 0.945856 -3.26352 -0.0420359 0.380099 -0.0973061
52 1 0.599884 0.0279889 0.017036 1.40497 -3.24966 -0.0818568 0.72688 0.697996
127 1 0.570739 0.0518114 0.0147643 0.411984 -3.29653 0.0743548 0.383099 0.244485
47 1 0.571054 0.00662102 0.0190604 1.50175 -3.34063 -0.0695025 -0.493741 -0.429024
1646 1 0.568684 0.0285356 0.0410452 0.758757 -3.28898 0.0365489 -0.309237 -0.146745
1649 1 0.59603 0.00498862 0.0432339 0.621449 -3.35258 0.214107 0.0339595 -0.0270349
1650 1 0.625415 0.0297788 0.0444564 0.605536 -3.35951 -0.350018 0.0334511 -0.221339
51 1 0.628672 0.00818643 0.0212362 0.856849 -3.29183 0.422052 -0.236326 0.396526
56 1 0.655889 0.0326249 0.0214751 0.692948 -3.27442 0.0673702 0.0511743 0.548238
55 1 0.684641 0.0102766 0.0225554 1.81811 -3.30851 0.8882 0.0432984 0.636083
54 1 0.686059 0.0341342 0.00242943 1.57733 -3.28081 0.739068 -0.083665 0.138495
60 1 0.715751 0.0357323 0.0262119 0.452203 -3.3505 -0.439698 0.174853 -0.374004
57 1 0.720769 0.0122556 0.00435494 0.792326 -3.28866 -0.425067 0.0846769 0.302763
58 1 0.746597 0.0386232 0.00437065 0.622195 -3.34277 0.100172 0.0302471 0.515842
59 1 0.745334 0.0147334 0.0281057 0.578198 -3.29616 0.187124 -0.589598 -0.141893
64 1 0.774809 0.0380321 0.0291645 0.843891 -3.30334 -0.597999 0.64277 0.306343
61 1 0.778023 0.0171332 0.00689468 1.13285 -3.32352 -0.32286 -0.622504 -0.0118288
63 1 0.803036 0.0163297 0.0307255 1.02742 -3.31737 0.193795 -0.00585948 0.489019
62 1 0.804044 0.0411916 0.0092218 0.384351 -3.26911 0.19997 0.401834 -0.0447879
68 1 0.82989 0.0429076 0.0343208 0.831861 -3.26375 0.386521 -0.312686 -0.334896
65 1 0.835068 0.0203103 0.0125076 0.607949 -3.29134 0.0660688 -0.288878 0.248162
66 1 0.862052 0.0473701 0.0165995 1.9637 -3.30817 0.322897 -0.662105 -0.361466
67 1 0.862312 0.0193699 0.0349976 6.88992 -3.27285 -0.149994 0.606752 0.438615
72 1 0.889566 0.0481876 0.0387527 7.4707 -3.33997 -0.404761 -0.578157 0.0679431
69 1 0.893407 0.0239543 0.0155284 8.53369 -3.27103 0.101846 0.024677 0.505943
70 1 0.921586 0.048747 0.017521 7.42015 -3.27783 -0.371077 0.104428 0.0956209
73 1 0.935688 0.0142371 0.0258807 5.4469 -3.29437 -0.487633 -0.169789 0.0834347
78 1 0.983099 0.0330307 0.00458658 6.9443 -3.29326 0.662687 -0.366438 0.0211781
74 1 0.957959 0.0419788 0.0266364 8.9249 -3.13011 0.192273 -0.789933 -0.17502
79 1 0.980048 0.013645 0.03096 7.00776 -3.40287 0.00540163 -0.254672 -0.183182
77 1 0.957512 0.00751487 0.00166723 6.34587 -3.27158 0.372041 0.0594563 0.00944399
83 1 0.0298404 0.0641708 0.03447 12.6156 -3.32792 0.294977 -0.211183 -0.170995
81 1 0.0114268 0.05584 0.00293736 5.7613 -3.26853 0.06116 0.149613 0.0763093
82 1 0.0387356 0.079929 0.00395414 8.53191 -3.25466 -0.479358 0.392626 0.591528
158 1 0.0212593 0.0936453 0.0281735 3.6828 -3.24538 -0.385053 -0.0103595 0.0496464
88 1 0.0626968 0.0866539 0.0327792 5.13396 -3.29195 -0.450954 -0.148913 0.0219487
85 1 0.0518713 0.0510284 1.00183 1.6375 -3.2345 -0.113751 0.564822 0.0872862
87 1 0.0753776 0.0564624 0.0269768 0.881829 -3.33194 -0.507014 0.0803106 -0.140797
92 1 0.102704 0.0831111 0.0280259 1.51385 -3.27801 -0.315992 -0.820139 -0.437594
86 1 0.0775856 0.0775228 0.00130146 0.472049 -3.31793 0.310311 -0.463214 0.251259
91 1 0.113924 0.0498326 0.0222843 1.34261 -3.32955 0.614479 0.141418 -0.469105
96 1 0.142722 0.0761196 0.0235436 0.253082 -3.31168 -0.00660457 0.0229185 -0.213008
100 1 0.181369 0.0680447 0.0177579 0.861174 -3.25544 1.01125 0.634422 0.449373
175 1 0.170778 0.102233 0.0243947 1.53782 -3.35045 -0.0776306 -0.203231 0.00788625
173 1 0.145984 0.0984338 0.999078 0.332383 -3.31229 -0.219817 0.0322845 0.141158
1698 1 0.21022 0.0692164 0.0432214 0.583241 -3.32995 -0.398243 0.190024 -0.484866
104 1 0.22337 0.0624657 0.0121092 7.28476 -3.29251 -0.721716 -0.184631 0.846655
183 1 0.24891 0.087499 0.0133479 6.68756 -3.31492 0.0787296 -0.044892 0.130875
1702 1 0.248867 0.0643445 0.0374917 6.37989 -3.25481 -0.377744 -0.324374 -0.0918918
1781 1 0.234949 0.0953573 0.043472 0.242682 -3.2725 -0.477186 -0.101216 -0.314715
179 1 0.210072 0.093171 0.018823 0.64558 -3.2897 -0.352432 -0.0631647 0.274692
1785 1 0.274031 0.0895185 0.0379313 6.40675 -3.29755 0.0785981 0.173887 0.199814
1706 1 0.279559 0.0643064 0.0197993 0.937237 -3.26077 -0.035368 -0.31555 -0.115095
1712 1 0.305391 0.0630269 0.045042 1.96304 -3.22787 0.382506 0.178147 0.218912
1789 1 0.305459 0.0901266 0.0204114 1.29698 -3.27469 0.38531 0.159298 0.239306
112 1 0.30858 0.0659772 1.00022 1.48571 -3.23871 0.661649 -0.989639 -0.681104
191 1 0.339014 0.0883741 0.001144 0.791423 -3.29773 -0.291551 0.00922267 -0.0998394
1710 1 0.332229 0.0652422 0.0237063 1.95808 -3.28401 0.870438 -0.0207421 0.169101
1793 1 0.367309 0.0878808 0.0239761 1.58818 -3.28196 -0.542083 0.312065 0.0381029
116 1 0.364843 0.0644715 0.00374749 1.59087 -3.32305 0.331589 0.0863131 -0.0770047
195 1 0.396477 0.092901 0.00308574 1.45082 -3.27175 0.220835 -0.460684 -0.05748
1714 1 0.395657 0.0643719 0.0265548 1.43203 -3.27158 -0.485086 0.761758 -0.208775
120 1 0.425267 0.0685065 0.00417858 0.762878 -3.33254 -0.473493 0.0209108 0.142878
1797 1 0.42238 0.0927314 0.0257946 0.882728 -3.27579 -0.189096 -0.0720416 0.536212
1718 1 0.451649 0.0716831 0.0290424 0.942601 -3.29605 -0.120476 -0.505575 0.274654
199 1 0.451144 0.0923939 0.00495218 2.07746 -3.17479 0.312505 0.672458 0.470129
124 1 0.48233 0.0743649 0.00851447 0.484636 -3.24459 0.42901 0.0463247 -0.152669
1801 1 0.476749 0.0954143 0.0331564 1.70298 -3.35596 0.294792 0.194394 -0.32479
1722 1 0.508784 0.0737116 0.0313312 1.50192 -3.32192 0.346507 0.41164 0.782972
203 1 0.509271 0.0984869 0.00954594 0.604147 -3.31027 -0.0168769 -0.377937 0.4986
128 1 0.54097 0.0740188 0.0128102 0.720337 -3.34753 0.174729 0.291369 -0.281934
1805 1 0.534547 0.100348 0.0353536 0.872492 -3.25801 -0.34356 -0.679236 -0.559886
1726 1 0.564576 0.0772327 0.037954 1.03033 -3.35016 0.441908 -0.35022 -0.082276
207 1 0.566676 0.100166 0.0143921 0.299672 -3.32929 0.241961 -0.339282 0.0631951
132 1 0.599045 0.077669 0.0160912 0.82016 -3.33815 -0.532279 -0.286515 0.44288
1809 1 0.591487 0.101733 0.039991 0.952809 -3.2977 0.239014 -0.312125 -0.668923
211 1 0.623619 0.102406 0.0192426 0.39547 -3.26824 -0.115274 -0.0451236 0.125175
1729 1 0.595178 0.0517047 0.0399594 0.835785 -3.34587 0.0812148 0.470154 0.263281
1730 1 0.622827 0.0794724 0.0421139 0.740953 -3.31614 0.173322 -0.634279 -0.438475
131 1 0.626211 0.0535059 0.0201186 0.69886 -3.33247 0.222527 0.360414 0.185985
136 1 0.652199 0.0805093 0.0200946 0.837943 -3.32818 0.347079 -0.255231 0.209274
135 1 0.684398 0.0583705 0.0239526 0.45647 -3.36068 -0.0139281 0.0612222 0.108243
1733 1 0.652218 0.0537946 0.0455484 1.17985 -3.33661 0.0265681 0.614166 -0.426662
133 1 0.660258 0.0580046 1.00013 1.74518 -3.28121 -0.621028 -0.412962 -0.531674
134 1 0.684847 0.0811275 0.997748 1.59602 -3.26147 0.291329 0.611319 0.425049
140 1 0.710966 0.0841158 0.0238405 0.44566 -3.34693 0.125659 -0.14145 0.0703202
137 1 0.715826 0.0606799 0.00206936 0.739778 -3.30995 0.11895 -0.381106 0.701304
139 1 0.742581 0.0623247 0.0287744 1.08556 -3.32338 -0.0043961 -0.701356 -0.578387
138 1 0.743672 0.0840889 0.00370495 0.58437 -3.29838 -0.350897 0.38507 0.191497
144 1 0.76987 0.0865553 0.0298057 0.774939 -3.31612 0.484128 0.0251145 -0.266278
141 1 0.773251 0.0643566 0.0073849 0.727769 -3.32756 0.251512 -0.508936 -0.0372416
143 1 0.801422 0.0646528 0.0299386 0.412762 -3.34938 -0.13002 0.339244 0.0633746
142 1 0.800887 0.0891611 0.00655219 0.976109 -3.3281 0.301717 -0.247029 0.716336
145 1 0.834017 0.0671025 0.0104096 0.937155 -3.29005 -1.05964 0.268939 0.293517
148 1 0.826905 0.0924849 0.0326059 1.04085 -3.27578 0.614945 -0.65179 -0.208829
147 1 0.857028 0.0715796 0.0357747 1.77773 -3.27947 0.101682 -0.417143 0.133925
146 1 0.859696 0.093426 0.0123357 0.443539 -3.33926 0.0648471 0.110567 0.473583
152 1 0.88568 0.0934537 0.0405953 2.11122 -3.26472 0.446783 0.0729591 -0.722233
149 1 0.890106 0.0719022 0.0175889 0.614244 -3.34453 0.110182 -0.010365 -0.325229
151 1 0.917025 0.0697805 0.0412364 8.09888 -3.29088 0.269293 0.53269 -0.0605991
150 1 0.918634 0.09673 0.0193806 1.05054 -3.33434 -0.274933 -0.379084 -0.120384
156 1 0.948088 0.0967288 0.0420865 7.97058 -3.33511 -0.566903 -0.230822 -0.218445
153 1 0.948612 0.0729918 0.0183305 7.12746 -3.21403 0.0557903 0.404949 1.04466
155 1 0.954486 0.0620647 0.047522 5.48349 -3.25403 0.166369 0.712092 0.777441
154 1 0.977878 0.0977778 0.0226709 9.00475 -3.3214 0.119889 0.102445 -0.645409
157 1 0.987132 0.0625839 0.0272937 7.95213 -3.25379 0.350352 0.420051 0.549325
30560 1 0.00585776 0.102421 0.000881107 5.74988 -3.33012 0.209879 -0.338876 -0.048321
161 1 0.0473429 0.117142 0.0325901 7.59737 -3.16167 -0.234635 0.808122 -0.880393
238 1 0.0309721 0.150919 0.0240905 7.49858 -3.32144 -0.217408 -0.453081 0.10681
30564 1 0.0596705 0.154215 0.00193437 5.97976 -3.25446 0.154711 -0.292798 -0.0669501
30639 1 0.0355848 0.128984 0.00214146 4.8774 -3.21572 -0.302249 -0.282822 0.641339
165 1 0.0642239 0.106377 0.00852792 7.22058 -3.30772 0.244059 0.185766 -0.28154
162 1 0.0739873 0.146822 0.029121 4.88776 -3.27749 0.00390998 -0.165573 0.469015
167 1 0.089136 0.111996 0.0354743 5.9488 -3.30315 -0.304047 0.493374 -0.288457
166 1 0.0942311 0.132141 0.00837435 7.58582 -3.29348 -0.580382 -0.15539 -0.107626
169 1 0.104531 0.102796 0.00204392 0.929374 -3.28063 0.0747406 -0.0769713 0.381613
172 1 0.11544 0.138635 0.0349428 6.17154 -3.30028 -0.459069 -0.303085 -0.134267
171 1 0.12742 0.106033 0.0286066 1.04621 -3.29142 0.48373 0.591678 -0.301471
176 1 0.155046 0.132433 0.0299359 1.46069 -3.3126 0.118802 -0.0138918 -0.118372
170 1 0.132967 0.128684 0.00477386 1.14568 -3.25589 -0.396643 -0.272594 -0.243941
174 1 0.171058 0.12416 1.00114 2.03572 -3.26372 0.405496 -0.33379 -0.24717
180 1 0.196938 0.130441 0.0263418 10.0389 -3.26907 -0.0809729 -0.351223 -0.648805
184 1 0.23429 0.11825 0.020385 7.37761 -3.29192 0.0383736 0.359961 0.164847
259 1 0.216402 0.156654 0.0143974 11.9821 -3.18371 0.791476 -0.412953 0.443197
178 1 0.210685 0.119111 0.996085 5.41711 -3.30526 -0.269869 -0.171791 0.0310329
1782 1 0.25974 0.121287 0.0433088 5.06368 -3.31589 0.203214 0.200009 0.15306
188 1 0.275019 0.113689 0.0147456 7.88335 -3.2937 0.300575 0.119843 0.235732
263 1 0.255364 0.145864 0.0108931 5.02574 -3.29419 -0.16383 -0.118053 0.0475494
1786 1 0.30062 0.117127 0.0387467 7.75801 -3.33499 -0.103447 0.0258026 -0.074126
267 1 0.296253 0.141138 0.00533727 2.10882 -3.25345 -0.137692 -0.367008 -0.231452
1865 1 0.281741 0.149768 0.0332906 7.87702 -3.25025 0.11633 -0.628104 0.104882
192 1 0.309417 0.110623 0.99753 6.1296 -3.31768 -0.0518956 0.242983 -0.00452439
1869 1 0.322491 0.143768 0.0270159 3.19319 -3.28969 0.234003 -0.209542 0.329945
271 1 0.337241 0.134447 0.997327 7.36645 -3.30308 -0.423657 0.146213 0.36608
1790 1 0.337349 0.112632 0.0234146 6.88394 -3.33776 -0.431872 -0.190605 -0.166386
196 1 0.36635 0.111944 0.000970832 0.38747 -3.29628 -0.0183183 0.440922 0.023869
1873 1 0.362715 0.137305 0.0218085 8.3793 -3.33453 0.17676 0.0230155 0.011464
1794 1 0.39513 0.116151 0.0261941 1.6796 -3.27032 -0.660929 -0.387799 -0.549673
275 1 0.394612 0.137665 -0.000715578 1.74364 -3.32448 -0.282279 -0.0176054 0.625251
200 1 0.425604 0.115589 0.00514016 2.82168 -3.28779 -0.472846 0.23443 -0.497224
1877 1 0.415461 0.142322 0.0263948 1.48979 -3.23169 0.690111 -0.148852 -0.575782
1798 1 0.448502 0.120764 0.0297525 2.60123 -3.27975 -0.421628 -0.655339 -0.472561
279 1 0.445829 0.141204 0.00340355 1.4142 -3.34262 0.311934 0.129977 0.229143
204 1 0.476767 0.118074 0.00723768 1.21897 -3.36025 -0.0787439 0.447641 0.388842
1881 1 0.473594 0.14437 0.0296863 0.492633 -3.29599 0.183243 -0.208998 -0.341706
1802 1 0.503774 0.122578 0.0320059 0.683061 -3.33981 -0.339003 -0.285082 -0.338798
283 1 0.505374 0.144774 0.00699318 1.12096 -3.34325 -0.270876 -0.37231 0.796171
208 1 0.535938 0.121336 0.0123261 0.66185 -3.33901 -0.0458348 0.658058 -0.329873
1885 1 0.530333 0.147108 0.0346386 1.15219 -3.3073 0.475931 -0.132042 -0.336937
1806 1 0.56116 0.124794 0.0347775 1.6391 -3.29722 0.141821 -0.0227569 0.286133
287 1 0.562258 0.14954 0.0141054 2.0017 -3.2983 0.119662 -0.848869 -0.17996
212 1 0.593777 0.125068 0.0170799 0.425975 -3.26947 -0.390127 -0.437783 0.0383866
1810 1 0.620323 0.126945 0.0407573 0.812287 -3.29918 -0.00578284 -0.602691 -0.0136001
1889 1 0.590392 0.14705 0.0376756 0.703311 -3.34624 -0.183677 0.566018 0.375018
291 1 0.621205 0.148953 0.0171447 0.411794 -3.27617 0.205599 0.332841 0.163337
215 1 0.683114 0.105734 0.0195691 1.44695 -3.31669 -0.586763 -0.111075 0.560136
1813 1 0.651445 0.103944 0.0404837 1.66067 -3.31994 -0.19248 0.0599935 0.566084
216 1 0.649686 0.127721 0.0209258 0.893155 -3.28866 0.537792 -0.208926 -0.362367
1893 1 0.646648 0.150488 0.0435372 0.908078 -3.32986 -0.0211555 -0.196648 -0.379245
1814 1 0.678167 0.128664 0.0435279 0.35985 -3.35509 -0.136054 0.0828766 -0.0212955
214 1 0.680619 0.128337 0.999083 0.60381 -3.31296 -0.0173017 0.103135 0.101542
220 1 0.710297 0.131295 0.0235709 0.713355 -3.32614 -0.229501 -0.641815 -0.137766
217 1 0.71305 0.107747 0.00124276 0.520471 -3.32159 0.203863 -0.314413 -0.231521
219 1 0.741558 0.10701 0.0257164 1.30771 -3.35039 -0.472631 0.592024 -0.151213
218 1 0.743427 0.129271 0.00179363 2.97434 -3.25156 -1.16125 0.872739 0.666987
224 1 0.767508 0.134081 0.0283251 0.640778 -3.34423 -0.298804 -0.298717 -0.252963
221 1 0.773748 0.111999 0.00496319 1.6024 -3.20571 -0.366321 -0.685194 0.631234
223 1 0.79937 0.112811 0.0301324 0.745581 -3.28081 -0.92451 0.106408 -0.207047
222 1 0.799253 0.135563 0.00658288 0.490622 -3.31 0.290282 0.152201 0.165619
228 1 0.824577 0.139597 0.0317875 0.648227 -3.34079 0.245463 -0.60727 -0.128413
225 1 0.829618 0.114171 0.0104638 0.277228 -3.34945 0.146204 0.2681 -0.209693
227 1 0.86019 0.11783 0.0334772 3.73088 -3.19721 -1.58607 -0.826533 0.536382
232 1 0.882018 0.141087 0.0374214 0.66204 -3.25947 0.586185 0.718615 0.0285673
226 1 0.857884 0.140168 0.012228 0.340143 -3.30425 -0.590425 0.153292 0.0850798
229 1 0.887137 0.119063 0.0141199 0.691089 -3.25332 0.726743 -0.288426 -0.294683
231 1 0.913413 0.119499 0.0386432 0.518849 -3.32895 -0.17876 -0.00357049 0.267735
236 1 0.940935 0.144768 0.0407462 0.467996 -3.27606 0.107889 -0.47018 -0.350772
233 1 0.94392 0.121317 0.0178204 0.870777 -3.30881 0.400069 -0.0623378 0.591225
230 1 0.914084 0.144158 0.0172466 0.446965 -3.34898 -0.0486188 -0.175805 -0.259185
235 1 0.974012 0.122103 0.0422003 7.82492 -3.28832 -0.259022 -0.0820136 -0.259962
234 1 0.972775 0.144672 0.0185202 1.72548 -3.24803 -0.430659 0.645904 0.638166
240 1 0.995521 0.147796 0.0421256 8.22891 -3.29031 0.668337 0.244588 0.492906
237 1 0.00742518 0.12412 0.0224255 7.65367 -3.33008 -0.341215 0.105415 0.220853
30640 1 0.00310408 0.148726 -0.000102449 0.249987 -3.2566 -0.201716 0.0878484 0.399685
242 1 0.0531147 0.200166 0.00471748 1.1886 -3.29367 0.252577 -0.680783 -0.769964
241 1 0.0553631 0.174897 0.0242705 6.42 -3.29632 0.662562 0.506727 0.290612
318 1 0.0224969 0.195223 0.0227012 0.984308 -3.25426 0.246457 0.556191 -0.114782
30719 1 0.0284698 0.173717 0.000641487 0.493427 -3.30574 -0.495624 0.414126 0.286056
319 1 0.0262568 0.173398 0.0450642 6.9739 -3.30598 -0.0102048 -0.485897 0.504349
248 1 0.0839457 0.200269 0.0286952 6.90094 -3.32372 -0.148636 0.0447753 -0.624764
245 1 0.0874828 0.178463 0.00427511 4.79033 -3.25219 -0.739877 -0.14366 0.301409
247 1 0.101311 0.172487 0.0323189 6.48048 -3.23789 -0.400444 -0.431788 0.059851
246 1 0.111322 0.202947 0.00473953 3.21844 -3.29441 0.459685 0.185299 0.286231
249 1 0.119455 0.15791 0.0104583 8.41304 -3.27181 -0.189478 0.0132228 -0.437225
252 1 0.127396 0.196157 0.0327761 4.78815 -3.27364 0.270793 0.0228892 -0.194557
251 1 0.139823 0.162898 0.0378563 8.3191 -3.20528 -0.225273 0.392084 -1.00991
256 1 0.166312 0.186941 0.033951 6.84755 -3.26281 -0.174761 0.370397 0.182585
250 1 0.146002 0.183336 0.00814301 7.32109 -3.29608 -0.510174 0.0465297 -0.128063
255 1 0.179788 0.15868 0.0255267 5.52037 -3.26329 -0.418741 0.0451674 -0.0887671
253 1 0.156436 0.153939 1.00088 1.39987 -3.2314 -0.0614529 0.108231 -0.11748
254 1 0.183254 0.178985 0.998776 5.48891 -3.1586 0.0103394 0.222387 0.0997754
260 1 0.203516 0.184479 0.0230847 2.70931 -3.25329 0.564752 0.667866 0.469585
264 1 0.245352 0.178399 0.0185646 1.60978 -3.2442 -0.621643 -0.112039 -0.25985
1861 1 0.241903 0.150607 0.0403739 6.42202 -3.26666 0.343762 0.0886433 -0.218212
268 1 0.282644 0.171593 0.0103249 0.59368 -3.25449 0.0482622 0.12998 0.551936
1866 1 0.309865 0.172937 0.0380867 3.2991 -3.15537 -0.506094 0.531526 -1.54423
347 1 0.310952 0.195917 0.0120712 1.70549 -3.25919 -0.793082 0.103849 -0.437065
1862 1 0.268389 0.17755 0.041727 0.694292 -3.21707 -0.00846446 0.384383 -0.0199136
272 1 0.321225 0.165013 0.00520067 1.58336 -3.27228 0.579243 0.514588 -0.180217
276 1 0.363325 0.160353 0.998287 8.1115 -3.32738 -0.324298 -0.0332519 0.350858
351 1 0.34775 0.193296 0.00415736 0.95027 -3.26776 -0.10941 -0.0756534 0.067935
1870 1 0.349003 0.171614 0.0274871 2.02082 -3.30236 -0.285877 -0.233174 0.0250106
1953 1 0.374939 0.197338 0.0299742 1.17803 -3.28926 -0.294252 -0.979571 0.274627
1949 1 0.333171 0.199855 0.0344497 0.914504 -3.23613 0.583439 0.143459 0.586974
355 1 0.38643 0.186461 0.000768881 6.8405 -3.31474 0.605366 -0.181753 0.189582
1874 1 0.386361 0.16298 0.0241725 6.95734 -3.3072 0.212575 0.361637 -0.195246
280 1 0.418353 0.164645 0.00169394 0.467759 -3.33097 -0.667269 -0.215885 0.0688509
1957 1 0.413795 0.189064 0.0264014 6.19361 -3.3003 -0.353444 -0.323954 -0.453679
359 1 0.443216 0.188012 0.00369723 0.523558 -3.31669 0.293353 0.47493 0.259091
1878 1 0.442299 0.166064 0.0270834 0.379187 -3.26891 0.154199 -0.255498 -0.118079
284 1 0.47354 0.165803 0.00707551 0.388636 -3.34056 0.0562577 -0.162563 -0.249372
1961 1 0.470784 0.187564 0.0296067 0.595057 -3.2864 -0.180105 0.538361 -0.0575892
1882 1 0.500511 0.167527 0.0306681 0.380484 -3.26822 0.39411 0.150518 0.118125
363 1 0.50121 0.18966 0.0078807 0.49221 -3.3034 0.272962 0.0488632 -0.0265516
288 1 0.53221 0.168683 0.0102964 0.302731 -3.31456 -0.0356182 0.0855606 0.120828
1886 1 0.55933 0.16989 0.0362193 0.640488 -3.32392 0.21293 -0.133862 0.317682
367 1 0.561542 0.193596 0.0127058 0.501124 -3.28958 -0.366903 -0.272419 -0.235062
1965 1 0.530239 0.190383 0.0330099 1.09348 -3.29556 -0.421631 -0.17084 0.155923
292 1 0.59448 0.171349 0.0157233 2.20643 -3.28626 -0.911782 0.0617422 -0.294247
1969 1 0.585005 0.193878 0.0359368 1.04121 -3.28858 0.351983 0.283839 0.592171
1890 1 0.618878 0.174033 0.0383879 1.20538 -3.32324 -0.278687 -0.208754 0.372354
371 1 0.617574 0.197879 0.0164368 0.74127 -3.29989 0.171171 -0.126842 -0.113798
295 1 0.677495 0.150804 0.0206451 0.701112 -3.32932 0.273534 0.270198 0.294938
296 1 0.649042 0.173056 0.0187362 0.735438 -3.27734 -0.385277 0.0674663 -0.250518
1973 1 0.64463 0.199102 0.0389447 1.54765 -3.24788 -0.85155 -0.16526 1.02291
1894 1 0.672721 0.174337 0.0428883 0.562963 -3.35233 0.288702 0.105338 0.201404
375 1 0.6723 0.198361 0.0213255 1.15422 -3.25486 1.09638 0.247675 -0.819489
1897 1 0.706735 0.154685 0.0462373 1.09481 -3.29098 -0.759817 -0.291929 -0.211466
299 1 0.7339 0.154475 0.0238928 1.3195 -3.30995 0.840455 0.360849 0.179312
300 1 0.704393 0.17643 0.0223951 0.328268 -3.35923 -0.203517 0.0982487 0.0503446
1898 1 0.730934 0.178396 0.0487273 0.574197 -3.22807 0.21879 0.0594868 -0.541825
298 1 0.735107 0.177904 0.00277701 0.184293 -3.34592 0.226465 0.0404937 -0.00147333
297 1 0.708208 0.153056 1.00029 0.301555 -3.30311 -0.0395079 0.0584304 0.145017
304 1 0.761217 0.181091 0.0280955 0.514099 -3.35037 0.0524143 -0.512061 -0.0860614
303 1 0.793426 0.158806 0.0285374 0.674586 -3.3168 -0.450984 0.201545 0.26814
302 1 0.789992 0.183496 0.00797162 1.4108 -3.3422 0.542031 -0.436881 -0.399485
301 1 0.766537 0.154577 0.0051619 1.16177 -3.32908 -0.248317 0.684407 -0.0384697
308 1 0.818436 0.183801 0.0320736 0.512126 -3.30043 -0.266451 0.213394 -0.105924
305 1 0.823766 0.161988 0.00968925 0.323556 -3.3254 0.0925775 -0.246944 -0.364586
307 1 0.851732 0.164288 0.0334841 0.493061 -3.28385 0.0135311 -0.584448 0.347141
312 1 0.877242 0.189235 0.0364163 0.360807 -3.31695 0.280875 -0.153227 0.0567366
306 1 0.849571 0.186088 0.0138224 1.23243 -3.26158 0.179281 0.151415 -0.988287
309 1 0.884223 0.165611 0.0146882 0.625672 -3.32586 -0.342014 -0.0787384 0.148631
311 1 0.910761 0.165406 0.0403358 1.44598 -3.32301 -0.134684 0.673332 -0.449086
316 1 0.93445 0.191536 0.0408657 0.518038 -3.36612 0.0654729 0.285388 -0.153047
313 1 0.940687 0.167996 0.016346 1.13958 -3.31766 -0.349643 0.14078 0.666481
310 1 0.907289 0.190227 0.0164359 0.569041 -3.34476 0.385868 0.12477 -0.0630344
315 1 0.96264 0.169278 0.0433894 2.13967 -3.26311 0.77447 0.39317 -0.563778
320 1 0.994111 0.193011 0.0436877 1.05728 -3.2542 -0.454302 0.751196 0.382934
317 1 0.99552 0.173116 0.0215882 1.41567 -3.27453 0.173119 -1.01387 -0.0996759
314 1 0.965606 0.192851 0.0204167 0.575142 -3.32036 -0.431435 0.358906 0.158727
30720 1 0.994304 0.195133 0.998938 0.45979 -3.30046 0.257282 0.282789 0.0376478
323 1 0.0502252 0.221887 0.0227604 1.35355 -3.22259 -0.434565 0.289065 0.778912
324 1 0.0165708 0.243441 0.0227367 0.868248 -3.22725 0.555749 -0.0310391 -0.105186
399 1 0.0216008 0.219252 0.0444135 0.63617 -3.3204 -0.561886 0.218435 0.0528437
321 1 0.020928 0.22269 7.81214e-05 1.2811 -3.30887 0.251571 -0.493448 0.390279
322 1 0.0500751 0.247463 0.00499956 1.85163 -3.27904 -0.372962 -0.248033 -0.726767
328 1 0.0751915 0.245622 0.0269149 1.43376 -3.2224 0.449191 0.626992 0.388986
325 1 0.0815433 0.224423 0.0046052 0.729205 -3.29551 -0.0788037 -0.0950254 -0.0891525
327 1 0.1087 0.225576 0.0276195 6.70843 -3.33212 0.222784 -0.062763 0.0479913
332 1 0.132027 0.251084 0.0298382 6.40205 -3.22195 0.478407 0.208544 -0.279669
326 1 0.1035 0.250937 0.00726111 1.63338 -3.2287 -0.133153 -0.329533 -0.0224704
329 1 0.138269 0.227687 0.00630041 4.55771 -3.17099 -0.711822 -0.107904 0.276245
331 1 0.150638 0.223699 0.0338374 8.00383 -3.22283 -0.168027 -0.628381 -0.0723067
336 1 0.176003 0.245934 0.0386101 9.60243 -3.22413 -0.00876994 0.29576 -0.700997
330 1 0.159884 0.252422 0.00932708 5.82612 -3.20597 0.554159 0.188392 0.356045
333 1 0.169409 0.209422 0.00571541 8.47535 -3.26901 0.375419 -0.0976632 0.29998
335 1 0.188124 0.214223 0.0329777 3.58242 -3.27532 0.617261 -0.0407577 -0.0625066
334 1 0.195754 0.239347 0.0061761 2.5342 -3.2272 -0.296238 -0.128806 0.469519
340 1 0.215962 0.23876 0.0341579 1.30223 -3.30335 -0.110891 0.0271208 -0.159143
337 1 0.207105 0.208524 0.998055 1.01062 -3.30553 -0.0763888 -0.141419 0.0688175
339 1 0.230742 0.209044 0.0247788 0.503291 -3.2977 -0.327632 -0.00225389 -0.0977676
338 1 0.232577 0.233609 0.00117525 0.407966 -3.23044 0.188788 -0.152508 0.0222696
343 1 0.270043 0.202792 0.0163958 1.19708 -3.27316 -0.163389 0.459532 0.906404
344 1 0.2565 0.235198 0.0264957 0.476352 -3.27263 -0.100536 -0.625117 -0.174362
348 1 0.296433 0.228165 0.0198412 0.482019 -3.33705 -0.171899 -0.212777 0.160533
1945 1 0.294584 0.203279 0.0421318 0.508811 -3.3757 -0.204351 0.268485 -0.111897
342 1 0.269938 0.227934 0.995092 0.664314 -3.27788 0.309279 -0.158499 -0.319329
352 1 0.334429 0.225198 0.0110258 1.33476 -3.30374 0.0909713 -0.257577 0.43543
1950 1 0.359655 0.225382 0.0358279 0.849208 -3.32113 0.0801719 0.445146 0.241976
431 1 0.360368 0.24995 0.0134774 1.45329 -3.28521 -0.228518 -0.0304871 0.322456
356 1 0.374507 0.216744 0.00730251 0.845179 -3.22139 -0.280972 0.692482 -0.118334
1954 1 0.399876 0.220393 0.0320383 0.336706 -3.2459 0.406312 0.285199 -0.0203343
360 1 0.412764 0.21113 0.003007 6.31446 -3.34053 0.459463 0.0558915 -0.071059
435 1 0.398799 0.243152 0.00938567 0.57485 -3.30048 0.233349 -0.148807 -0.592724
2033 1 0.386317 0.250609 0.037131 0.932372 -3.2763 -0.874947 0.376255 0.4171
2037 1 0.42427 0.246792 0.0331633 1.48409 -3.31328 1.09015 -0.267972 -0.314989
439 1 0.440362 0.235035 0.00433773 7.098 -3.36147 -0.253561 0.0236529 0.375618
1958 1 0.440804 0.211362 0.0274527 6.86099 -3.32226 -0.0530362 0.452856 -0.033447
364 1 0.47059 0.213064 0.007284 0.771504 -3.32457 -0.131668 -0.253988 -0.140153
2041 1 0.467185 0.236247 0.0314728 6.90415 -3.26094 -0.673774 -0.0675993 -1.20204
1962 1 0.498396 0.209974 0.0299609 3.17646 -3.27401 -0.387247 0.714947 0.397945
443 1 0.495977 0.237754 0.00737635 0.590188 -3.31736 0.0491167 -0.307937 0.0491097
2045 1 0.521398 0.238225 0.0330572 0.749028 -3.29009 0.0185512 -0.125057 -0.126048
368 1 0.528674 0.215358 0.0115706 0.865617 -3.28861 -0.557047 -0.220385 -0.944006
1966 1 0.552122 0.216019 0.0340933 0.858785 -3.27034 0.808561 0.267023 0.43079
447 1 0.553771 0.238977 0.011779 0.448265 -3.28759 -0.0845303 0.376313 0.114653
372 1 0.586766 0.217657 0.0150849 0.904945 -3.31461 0.022813 0.677122 0.202514
2049 1 0.578886 0.242001 0.036404 0.62933 -3.29272 0.854549 -0.467812 -0.441456
1970 1 0.613047 0.220634 0.0396985 0.712142 -3.37404 -0.256217 -0.169314 -0.335384
451 1 0.614445 0.244585 0.0167534 1.68091 -3.34357 -0.542848 -0.255299 0.0469776
376 1 0.643722 0.22224 0.0163528 0.92988 -3.33641 -0.173137 -0.0736396 0.292565
2053 1 0.639497 0.243287 0.0428321 1.52109 -3.33122 0.279914 0.714561 -0.593249
1974 1 0.671508 0.221797 0.0438055 0.684018 -3.24544 -0.143594 -0.33444 -0.507473
455 1 0.670451 0.245094 0.0192426 0.518311 -3.29581 -0.436007 0.150644 0.355824
1977 1 0.701991 0.198899 0.0443522 0.992583 -3.31909 -0.655197 0.0900141 0.212536
379 1 0.731448 0.201244 0.0250983 0.334663 -3.31336 -0.0131259 0.274706 -0.0925295
380 1 0.698511 0.224133 0.0218507 0.69767 -3.2909 0.236253 -0.375982 -0.194642
2057 1 0.694245 0.245967 0.0457051 0.966524 -3.24444 0.356212 0.648203 -0.437391
1978 1 0.723806 0.225155 0.0453719 1.91505 -3.30841 0.807204 -0.0195163 0.296765
459 1 0.724055 0.248541 0.0246248 0.822527 -3.31162 0.763949 -0.146982 -0.0394341
378 1 0.731106 0.224679 1.00266 0.596623 -3.3105 0.0298739 0.48284 -0.132825
384 1 0.758161 0.227948 0.0270107 0.821308 -3.37077 -0.385416 -0.141567 -0.390159
381 1 0.760385 0.203732 0.00387652 0.584382 -3.29984 0.344259 0.148836 0.271865
383 1 0.78765 0.205365 0.0295059 0.333249 -3.35514 0.052314 0.307625 -0.110862
388 1 0.814016 0.232603 0.029705 0.646842 -3.29871 0.351054 -0.713293 0.208283
382 1 0.78924 0.229378 0.00393197 1.05147 -3.2961 -0.518751 -0.0386692 0.554215
385 1 0.817959 0.207836 0.00806255 0.39464 -3.33811 0.342437 -0.072748 0.43261
387 1 0.842851 0.209244 0.0329509 1.18769 -3.29962 0.422859 0.514546 -0.150001
392 1 0.872464 0.234121 0.0335338 1.19578 -3.34514 -0.0165606 0.507394 0.280212
389 1 0.874445 0.210689 0.0123938 1.09644 -3.29813 0.707452 0.400663 0.249529