ITEM: TIMESTEP
9000
ITEM: NUMBER OF ATOMS
32000
ITEM: BOX BOUNDS pp pp pp
3.5174685522257665e+00 7.7482531447774278e+01
-1.7775596797188697e+00 8.2777559679718934e+01
-1.7893831821476240e+00 8.2789383182147276e+01
ITEM: ATOMS id type xs ys zs c_csym c_peratom fx fy fz
8 1 0.0480835 0.0251404 0.0246863 0.665922 -3.3215 0.642233 0.194295 0.211718
1605 1 0.0502121 1.00046 0.048539 0.707766 -3.28492 -0.275487 0.0151974 0.327926
1602 1 0.026827 0.0297094 0.0512947 3.80109 -3.24166 -0.452935 -1.25567 -0.329415
1685 1 0.0523666 0.0505003 0.0507785 1.02317 -3.27825 0.18203 0.193952 -0.229182
12 1 0.0994405 0.0243705 0.0253968 0.36501 -3.35413 -0.30222 -0.0169475 -0.40016
87 1 0.074145 0.051796 0.0236006 1.1856 -3.29582 0.400172 -0.594936 0.481013
1606 1 0.0748304 0.0236076 0.0496298 0.46106 -3.27785 0.0297444 0.545395 -0.0253923
1609 1 0.0982595 0.998867 0.0495338 0.516162 -3.29999 0.233002 -0.0438694 -0.203222
6 1 0.0724854 0.0252794 -0.00226662 1.53391 -3.3614 0.0935601 -0.223287 0.759195
16 1 0.152916 0.0214737 0.0247078 2.36646 -3.24144 -0.717933 0.627436 -0.248167
1610 1 0.125482 0.0240295 0.0486712 0.744915 -3.24544 -0.493324 0.315648 0.172411
11 1 0.125437 -0.000156448 0.0263166 0.632296 -3.30352 -0.459267 -0.219988 -0.485218
91 1 0.124592 0.0489245 0.0261546 0.721026 -3.29741 0.49686 -0.0307606 -0.556762
15 1 0.176052 0.997299 0.0240197 1.33633 -3.28177 0.0128852 0.0379773 0.5751
1613 1 0.150052 1.00153 0.0498862 1.13998 -3.2271 0.421724 -0.990216 0.106947
1614 1 0.175797 0.024317 0.0494574 0.394438 -3.24955 -0.00167947 0.023286 0.52468
20 1 0.198752 0.0243675 0.0248821 0.568092 -3.28603 0.4054 0.0011287 -0.0456478
1618 1 0.226214 0.0234691 0.0490633 0.723552 -3.32847 -0.174278 0.317109 0.176876
1697 1 0.200122 0.0479208 0.0506871 0.375793 -3.31323 0.146456 0.194146 -0.269144
24 1 0.25219 0.0226906 0.0238594 1.53818 -3.29625 -0.630556 0.410699 0.482302
23 1 0.278885 1.00124 0.0261153 2.36278 -3.24252 -0.604525 -0.321897 -0.02876
103 1 0.275431 0.0495151 0.0238668 0.336895 -3.27055 -0.133157 -0.124452 0.245724
1622 1 0.273198 0.0237842 0.0520837 2.26095 -3.30958 0.3235 0.386963 -0.334898
22 1 0.275342 0.024593 0.000521023 0.618558 -3.31062 0.277336 -0.0358702 -0.639866
21 1 0.249594 0.999793 0.000376939 0.570337 -3.35094 -0.295129 0.181223 -0.285453
28 1 0.300869 0.0261327 0.0249818 0.532986 -3.26276 -0.0236836 -0.103711 0.00569636
32 1 0.349172 0.0235763 0.0243119 0.756709 -3.26954 0.282844 0.182888 -0.038292
25 1 0.30064 1.00038 0.999209 0.275936 -3.27969 0.220683 0.224389 -0.0671649
26 1 0.324603 0.0254902 -0.000643073 0.436429 -3.32608 0.255581 -0.22047 0.00734756
29 1 0.351288 -1.77502e-05 0.000467364 0.480764 -3.32233 -0.266226 -0.0123817 -0.355503
30 1 0.376274 0.0238782 -0.000778937 0.435662 -3.28917 -0.491484 0.312929 0.0485287
36 1 0.398832 0.0227878 0.0243809 0.817768 -3.299 0.581526 0.387537 0.386857
113 1 0.399534 0.0493519 -0.000240658 0.357501 -3.32801 0.0770953 -0.0708397 -0.105418
35 1 0.427162 0.997542 0.0243136 1.32967 -3.24747 -0.654557 0.958847 0.000485431
40 1 0.450096 0.0244062 0.0252266 0.213694 -3.27969 0.119265 -0.120082 0.12682
115 1 0.425423 0.048986 0.0237851 0.447281 -3.25001 -0.225258 -0.347151 0.394149
34 1 0.425771 0.0245566 0.00137907 1.25551 -3.34031 -0.248513 -0.114899 -0.559145
44 1 0.498694 0.0254811 0.0248399 0.633144 -3.34473 0.475 -0.128743 -0.155657
119 1 0.474284 0.0487674 0.0251906 0.356381 -3.26991 0.269165 0.0424047 -0.153349
123 1 0.526363 0.0506333 0.0234967 0.669371 -3.31497 -0.38199 -0.132107 0.311216
1721 1 0.500819 0.049826 0.0494802 0.397972 -3.34533 -0.0473407 -0.383751 0.140021
42 1 0.525791 0.0251796 -0.000287017 0.306877 -3.30355 -0.371253 0.115912 0.327772
48 1 0.550917 0.0237619 0.0245081 0.33753 -3.26185 -0.0577221 0.132227 0.204591
1646 1 0.574886 0.0222347 0.0488325 1.19868 -3.33719 -0.17289 0.633363 0.287652
1725 1 0.549455 0.0505175 0.049827 0.525183 -3.31994 0.116994 -0.48457 -0.239633
52 1 0.600552 0.0241727 0.0237768 0.377611 -3.28511 0.149942 0.342179 0.243405
50 1 0.628128 0.0246352 -0.000815133 1.05104 -3.21817 -0.630641 0.337092 -0.15102
129 1 0.602393 0.0517096 -0.00155965 1.37519 -3.25924 -0.45157 -0.759396 0.349613
56 1 0.650792 0.0255478 0.0254687 0.72912 -3.28377 0.168453 -0.118281 -0.0229212
1653 1 0.649406 0.998375 0.047472 1.85069 -3.27252 0.788175 0.535564 0.394748
60 1 0.703281 0.0240572 0.0271592 1.34723 -3.31928 -0.278559 0.408755 -0.296019
135 1 0.675685 0.0495099 0.0229462 1.39874 -3.2844 -0.013649 -0.186179 0.719988
137 1 0.699721 0.0496689 0.000715632 0.834599 -3.24626 0.426864 -0.228271 -0.390367
1657 1 0.702589 0.99899 0.0480553 1.56938 -3.28904 -0.367397 0.266165 0.66312
53 1 0.648801 1.00041 1.00025 1.28678 -3.26256 0.660841 -0.360534 -0.237129
54 1 0.675815 0.0239801 0.999341 0.551062 -3.34713 -0.100108 0.113252 0.071674
57 1 0.703239 1.00089 0.00241298 1.78497 -3.28498 -0.26795 0.478767 -0.81383
64 1 0.751193 0.0245609 0.0264428 0.470816 -3.33391 0.185466 0.308654 -0.00754642
59 1 0.727783 0.999867 0.0258797 0.666564 -3.23938 0.470991 -0.0097136 -0.181724
1658 1 0.726972 0.0239565 0.0538367 1.64586 -3.25917 0.0276078 0.339624 -0.768953
63 1 0.776708 1.0001 0.025782 0.337893 -3.29492 -0.41535 -0.224991 -0.186237
68 1 0.800833 0.0231295 0.0246506 0.515574 -3.1942 0.01816 0.637617 0.528829
67 1 0.822816 -0.00133981 0.0259962 0.984769 -3.28038 0.597003 -0.0607304 -0.0443899
1665 1 0.800462 -0.000417279 0.0512305 0.134349 -3.32448 0.0608668 -0.00145463 0.174117
1666 1 0.825333 0.0262559 0.0495358 1.07766 -3.26028 0.0836486 -0.7105 0.193368
72 1 0.8506 0.0229345 0.0264612 0.86412 -3.3462 0.0645326 0.353594 -0.460275
1669 1 0.850815 1.00013 0.0503949 0.336683 -3.34601 -0.269566 -0.17474 0.194909
70 1 0.875816 0.0224047 0.999007 0.687515 -3.26589 0.255782 0.380379 0.341428
76 1 0.899313 0.023206 0.0248327 0.656348 -3.30592 0.507012 0.522496 0.148641
75 1 0.926184 0.998123 0.0238253 1.10835 -3.37638 0.267305 0.133725 0.0357751
1674 1 0.92653 0.0255757 0.0516593 0.705989 -3.22386 -0.501858 -0.206381 -0.905209
4 1 -0.00208761 0.0273911 0.025422 1.17713 -3.26567 0.374977 -0.884688 -0.143001
80 1 0.950851 0.025914 0.0248437 0.304456 -3.32334 -0.254239 -0.215073 0.112065
79 1 0.973393 0.999319 0.0251751 0.729153 -3.31992 0.253765 0.0846889 -0.149314
78 1 0.973689 0.0242549 -0.00024214 0.502874 -3.27609 0.330075 0.362797 0.0057614
1601 1 -0.000968836 1.00199 0.0501348 0.724222 -3.32703 0.371735 -0.0988472 0.0473182
1678 1 0.974932 0.0253387 0.0498027 0.292672 -3.29375 -0.418213 0.134217 0.330625
1677 1 0.95071 0.999892 0.0507329 0.410445 -3.30819 -0.0695411 0.0777952 -0.285108
83 1 0.0223558 0.0505733 0.0247735 1.06765 -3.25478 0.711114 0.02839 0.0840805
88 1 0.0485168 0.075357 0.0245757 0.611625 -3.28477 0.254967 -0.117912 0.148979
82 1 0.0232403 0.0740496 -0.000480762 0.700223 -3.27945 -0.0534697 0.120146 -0.276378
1681 1 0.999481 0.050919 0.0494128 0.339271 -3.25835 -0.224227 0.173477 0.279822
1682 1 0.0272905 0.075945 0.0516872 1.50993 -3.2387 -0.617737 -0.420942 -0.859623
92 1 0.102199 0.0743782 0.0236273 0.740695 -3.29041 -0.308957 0.199265 0.709999
86 1 0.0756582 0.0757058 1.00086 1.02324 -3.31295 -0.224177 -0.0995906 -0.361161
96 1 0.152893 0.0734031 0.0230047 1.72511 -3.28192 -0.619521 -0.0545094 0.488699
1690 1 0.127129 0.0741092 0.0522396 1.18423 -3.27582 -0.331852 0.415299 -0.878219
175 1 0.175647 0.0983073 0.025556 0.571732 -3.35469 0.163761 0.184902 0.0404164
1693 1 0.149514 0.0499032 0.0500303 0.699996 -3.26798 0.240242 -0.397464 0.0887279
90 1 0.125318 0.0750416 1.00024 0.615044 -3.27383 0.03413 -0.495575 -0.538532
99 1 0.225685 0.0485828 0.0255316 0.526031 -3.30854 -0.184962 -0.405957 -0.34805
95 1 0.173759 0.0473387 0.0257675 1.18628 -3.27533 0.345265 0.448206 -0.385354
100 1 0.200507 0.0716302 0.0248054 0.713739 -3.37143 -0.328204 0.273117 0.0577614
1698 1 0.226899 0.0734208 0.049703 0.60271 -3.25675 -0.467454 0.0599279 -0.218144
104 1 0.250408 0.0720702 0.0241678 0.844147 -3.25496 -0.264085 0.499381 -0.139724
1701 1 0.250322 0.0492147 0.0486198 0.422825 -3.29457 0.387448 -0.317704 0.485786
183 1 0.274194 0.0976173 0.025936 1.19193 -3.26868 0.120258 0.188218 -0.529252
1702 1 0.275529 0.0737843 0.0488788 0.320826 -3.3075 -0.12902 0.0563714 0.149868
102 1 0.273764 0.0772252 -0.000390375 2.85413 -3.227 0.0370218 -1.00002 0.159779
107 1 0.327181 0.0500358 0.024441 0.617978 -3.26695 -0.437626 0.102391 0.0540226
105 1 0.299783 0.0496098 0.000444278 0.679724 -3.31476 0.355479 0.301669 -0.265795
108 1 0.300175 0.0744653 0.0224965 1.08966 -3.31933 0.12194 0.026828 0.478071
106 1 0.327453 0.0761073 0.00120524 1.22137 -3.2848 -0.424454 -0.48591 -0.255428
112 1 0.351771 0.0745527 0.0261033 0.503773 -3.23633 -0.00579357 -0.0442917 0.0321231
1789 1 0.35017 0.10189 0.0505933 1.17404 -3.25307 0.232132 -0.705787 0.273425
109 1 0.350456 0.0501443 0.000524718 0.312181 -3.34738 0.220329 -0.343498 -0.369448
185 1 0.299213 0.0998996 0.000710742 0.785201 -3.32546 0.329603 0.160129 -0.189562
111 1 0.374401 0.0480216 0.0267576 0.87777 -3.34557 0.256431 0.133013 -0.295884
191 1 0.373818 0.0995733 0.0258645 0.709919 -3.34245 0.673136 0.0254697 -0.166778
116 1 0.400183 0.072575 0.0223536 2.21298 -3.25867 -0.618002 0.34769 0.842104
1710 1 0.374018 0.0744109 0.0523146 0.8867 -3.29033 0.0567943 0.18742 -0.728923
110 1 0.374084 0.0748681 1.00046 0.434302 -3.26198 0.396406 0.0701525 0.00502427
120 1 0.45204 0.0732559 0.0259161 0.994361 -3.29054 -0.207144 0.501857 -0.183324
195 1 0.424602 0.0980778 0.0249522 0.704359 -3.30968 0.350098 -0.0166118 0.189642
114 1 0.425771 0.0754412 0.000630968 0.675518 -3.24289 0.0625032 -0.0180287 -0.187104
124 1 0.499425 0.0737698 0.0268774 1.06329 -3.24065 0.00425893 0.123573 -0.789185
122 1 0.525313 0.0767466 1.00065 1.07535 -3.33727 0.0463244 -0.533432 -0.271685
199 1 0.476517 0.0991295 0.0274721 0.780747 -3.30013 -0.309605 0.146269 -0.127862
118 1 0.476164 0.0747308 0.999802 0.501189 -3.24934 -0.61561 -0.148671 0.147356
121 1 0.500219 0.0514676 -0.00131494 0.675168 -3.32991 0.144286 -0.55062 0.246587
128 1 0.552809 0.0755761 0.02369 0.954692 -3.27147 -0.509732 -0.320061 0.43835
127 1 0.576595 0.0488261 0.0241346 0.613097 -3.31209 0.324135 0.23711 0.480852
126 1 0.575027 0.0740856 -0.00109689 0.687077 -3.22375 0.189591 0.0382159 0.0649625
1805 1 0.551681 0.100536 0.0485944 0.653998 -3.3272 -0.277177 -0.190328 0.175415
1726 1 0.574526 0.0732228 0.0493386 0.760275 -3.32886 0.392296 0.27179 0.170342
131 1 0.62578 0.0484611 0.0225827 1.52242 -3.31607 -0.256057 0.374734 0.728777
132 1 0.600701 0.0759734 0.0238619 1.19083 -3.31087 0.231179 -0.789964 -0.0351969
1730 1 0.625988 0.0720029 0.0511761 1.3461 -3.24567 -0.260023 0.0284721 -0.442682
211 1 0.629117 0.0974327 0.0243906 2.0107 -3.2475 -0.430534 0.376561 -0.114168
130 1 0.626266 0.0753351 0.999006 0.610313 -3.32708 0.517667 0.0495048 0.106884
136 1 0.650369 0.0728033 0.0276649 2.55234 -3.22638 0.163809 -0.124657 -0.67943
140 1 0.701416 0.0744612 0.0241065 0.961124 -3.28615 -0.553401 0.117825 0.687213
134 1 0.674849 0.0741993 1.0008 0.988124 -3.28663 0.216602 0.184372 -0.0408289
215 1 0.672483 0.0983381 0.0244162 1.4424 -3.32308 0.416575 0.192621 -0.0533826
1734 1 0.677098 0.0751268 0.0518169 1.09942 -3.24314 -0.0155784 -0.183268 -0.572038
133 1 0.650373 0.0491058 -0.00184486 0.70401 -3.3048 0.223025 0.331021 -0.0947578
217 1 0.700361 0.0995305 0.000824704 0.523188 -3.31456 -0.0405767 -0.324518 -0.371143
139 1 0.725935 0.0495339 0.0257888 0.25974 -3.31488 0.127827 -0.0575785 0.0481375
144 1 0.750083 0.0743531 0.0262664 0.345504 -3.29597 -0.354823 -0.257415 -0.14153
219 1 0.725078 0.0996325 0.0258504 0.363565 -3.34136 0.0861168 -0.0944588 0.292509
141 1 0.752225 0.0518472 0.999108 1.62352 -3.26495 -0.227033 -0.754194 0.405377
221 1 0.748227 0.0987368 0.999798 0.966527 -3.22599 0.751052 -0.470811 0.114186
143 1 0.777691 0.0504346 0.0248067 0.614273 -3.35362 -0.306115 -0.259205 0.0920926
142 1 0.775138 0.0749458 0.999451 0.436672 -3.24316 -0.0359422 0.0401517 -0.20028
148 1 0.800338 0.0759265 0.0231685 1.23394 -3.27763 0.153141 -0.352933 0.557089
147 1 0.824752 0.0493397 0.0241421 0.369392 -3.35686 0.131364 0.0417483 0.228411
151 1 0.875795 0.0495589 0.0239653 0.721557 -3.33706 -0.288503 -0.344255 0.096645
152 1 0.85154 0.0740541 0.0264954 0.995995 -3.32285 -0.337228 0.0586186 -0.130908
1750 1 0.875973 0.0748502 0.0511935 0.497081 -3.2639 -0.331106 0.0325794 0.0320831
231 1 0.874094 0.100355 0.0249656 0.504468 -3.16804 0.449045 -0.92158 0.345383
146 1 0.827231 0.073817 0.999842 0.815087 -3.26646 0.0374029 0.354087 0.418661
155 1 0.925639 0.0497484 0.0268843 0.430097 -3.32564 -0.210495 0.016135 -0.153145
156 1 0.899021 0.0744555 0.0269565 0.638872 -3.28423 0.161125 0.155183 -0.791568
1754 1 0.922603 0.0752773 0.0506344 1.15045 -3.31776 0.785017 -0.0136449 0.176737
235 1 0.925287 0.100234 0.026282 0.353125 -3.32372 -0.147933 -0.0303617 0.25329
1833 1 0.899145 0.100224 0.0515226 0.280747 -3.30339 0.174051 0.0546436 -0.202965
1753 1 0.89969 0.0494759 0.0512157 0.173879 -3.32326 0.0239555 -0.248728 0.060956
84 1 -0.000749806 0.0747807 0.0249131 0.424864 -3.30471 0.151251 0.558526 0.226585
159 1 0.975067 0.0516851 0.025143 0.472717 -3.26207 -0.472011 -0.103623 0.0290454
160 1 0.949915 0.076066 0.0256308 0.255055 -3.29716 -0.0934422 -0.313911 -0.0535102
1757 1 0.949505 0.0496964 0.0521013 0.568285 -3.28327 0.20483 0.471057 -0.330516
161 1 0.00169502 0.099122 0.00120573 1.12257 -3.31433 -0.109843 0.643203 -0.345041
163 1 0.0263997 0.0999122 0.0244386 0.66181 -3.27443 -0.191059 0.230837 0.23922
168 1 0.0513382 0.123694 0.0247925 0.570336 -3.31084 -0.198567 0.334559 0.438173
1762 1 0.0241037 0.12543 0.0514069 1.03791 -3.31751 0.670132 0.0913295 -0.538634
164 1 0.00082562 0.125171 0.0250037 0.407551 -3.29837 0.2013 -0.395365 0.353317
167 1 0.0752536 0.0997464 0.0235302 0.453637 -3.31224 -0.133692 -0.391409 0.338476
172 1 0.100305 0.122913 0.0251326 0.784294 -3.28135 0.0951792 0.370377 -0.182549
1766 1 0.0767893 0.125313 0.0505209 0.254944 -3.3065 -0.0381589 -0.217941 -0.255767
1769 1 0.101391 0.0990379 0.0496781 0.268269 -3.30981 -0.363993 -0.435439 -0.156703
169 1 0.10102 0.100055 -0.000379822 0.47626 -3.2636 0.176782 -0.131601 0.0407185
166 1 0.0751716 0.123671 1.00026 0.383668 -3.2606 0.014749 0.0218175 -0.219545
171 1 0.127796 0.0989629 0.0242721 0.792662 -3.34748 -0.0623973 0.00867813 0.218555
176 1 0.150071 0.126213 0.0258543 1.66808 -3.28104 -0.0165048 -0.703249 -0.0639905
251 1 0.126022 0.150776 0.0259094 0.676225 -3.28579 -0.515971 -0.208364 -0.150473
170 1 0.125636 0.124715 0.000538065 0.254865 -3.2884 0.157034 -0.287035 -0.00606425
173 1 0.151156 0.0976146 -0.00112425 0.7083 -3.201 -0.375667 0.291843 0.163152
179 1 0.22439 0.0964944 0.0240592 0.891034 -3.35243 -0.145436 0.242418 0.146468
180 1 0.200706 0.123007 0.0234811 0.968874 -3.25718 -0.550587 -0.317939 0.493471
259 1 0.224204 0.147377 0.0252744 0.372061 -3.26297 -0.313579 0.0994786 -0.110875
178 1 0.223535 0.123863 6.16038e-05 0.742599 -3.25404 0.726684 -0.235645 -0.204137
177 1 0.198151 0.0998531 -0.00130591 1.4097 -3.21664 0.38377 -0.312196 0.421296
184 1 0.251135 0.12252 0.0242415 0.76762 -3.29602 -0.59787 0.126882 -0.0972291
182 1 0.274232 0.124858 7.84105e-05 0.795849 -3.28294 0.482298 -0.418532 -0.0799275
181 1 0.24763 0.0982744 1.00004 1.29563 -3.28718 0.238998 0.251675 -0.117145
187 1 0.327227 0.100026 0.0247401 0.595205 -3.33077 -0.356619 0.00850778 0.0766058
188 1 0.300229 0.123172 0.024452 0.484446 -3.31903 0.241037 0.0365155 -0.101669
192 1 0.350992 0.125214 0.0267763 0.567307 -3.33039 -0.174081 0.285505 -0.403865
267 1 0.324176 0.15047 0.0267483 0.561731 -3.34538 0.0723003 -0.153916 0.00733811
1786 1 0.325254 0.123569 0.0505557 0.252871 -3.29376 -0.255081 0.424096 -0.0503475
269 1 0.348327 0.151111 0.00152918 1.01096 -3.24345 0.420154 -0.548 0.0841256
196 1 0.401575 0.123909 0.0247767 1.0986 -3.22838 -1.02072 0.136695 0.243569
1790 1 0.37769 0.123717 0.0512956 1.21754 -3.2616 -0.611621 0.524398 -0.375846
273 1 0.40179 0.152013 1.00002 1.45002 -3.25517 -0.255269 -0.55893 0.327888
200 1 0.449693 0.124115 0.0281345 1.2093 -3.34775 0.334941 -0.0879108 -0.0941232
275 1 0.425838 0.148797 0.0254771 0.942535 -3.31229 -0.150349 0.56764 0.452962
204 1 0.498533 0.125234 0.0263556 0.709032 -3.29712 0.410202 -0.183021 0.0249771
203 1 0.52536 0.100239 0.0263107 0.297303 -3.35836 -0.26822 0.0153671 -0.402867
198 1 0.476446 0.125422 0.00120585 0.948051 -3.28115 -0.170431 -0.0865167 -0.270189
202 1 0.52473 0.123733 0.00209584 1.07493 -3.30868 0.253899 -0.581183 -0.362225
281 1 0.50289 0.147903 -0.00102973 2.20392 -3.262 -0.776737 0.561557 0.330091
207 1 0.577159 0.0997522 0.0245134 0.50531 -3.29134 -0.117975 0.539984 0.174698
208 1 0.550336 0.125234 0.0253734 0.276308 -3.27779 0.0771745 -0.58705 -0.162692
287 1 0.573879 0.148767 0.023836 0.894537 -3.26634 0.398999 0.286115 0.603175
1806 1 0.576059 0.125401 0.0494518 0.868528 -3.30041 0.484634 -0.41815 -0.434548
205 1 0.552553 0.0982297 1.00052 1.39508 -3.27648 -0.583049 0.868813 -0.231701
206 1 0.576204 0.126018 1.00045 0.859569 -3.3249 0.0838875 -0.36248 0.0646828
212 1 0.604793 0.124098 0.0253468 2.01983 -3.33022 -0.660244 0.0756897 -0.102321
1809 1 0.603434 0.0964663 0.0480742 2.2181 -3.26162 -0.734274 0.5232 0.316586
210 1 0.625923 0.125574 -0.00067221 0.321312 -3.29966 -0.114584 0.216936 -0.458751
1889 1 0.601763 0.150372 0.0482695 1.25646 -3.36105 -0.326063 -0.206031 0.316017
291 1 0.625905 0.15139 0.0245957 1.02693 -3.22928 -0.241143 -0.127951 0.0315036
289 1 0.599523 0.151118 0.00160629 1.58732 -3.30202 0.442941 -0.074348 -0.393613
216 1 0.648288 0.12495 0.0242637 0.990221 -3.30387 0.277397 -0.0413074 0.0358689
220 1 0.698663 0.123918 0.0240054 0.647676 -3.28668 0.373984 -0.0421483 0.492859
295 1 0.674717 0.14861 0.0255246 0.634266 -3.31628 -0.238891 0.255685 -0.36617
213 1 0.650637 0.100564 -0.00183562 0.98388 -3.29007 0.141375 -0.08811 -0.248067
214 1 0.676224 0.124019 0.999614 0.57057 -3.26661 -0.747493 0.309408 -0.261727
224 1 0.751265 0.12599 0.0269315 1.47353 -3.21858 -0.149821 -0.377745 -0.519455
1818 1 0.726328 0.123479 0.0502542 0.919528 -3.27849 -0.60939 0.26215 0.0309611
299 1 0.724768 0.148694 0.0252574 0.347187 -3.37704 -0.129349 0.267694 -0.2191
218 1 0.726686 0.12254 1.00232 1.32084 -3.23685 -0.448817 0.866374 -0.298568
223 1 0.772841 0.0979615 0.0241214 1.28754 -3.30405 0.39265 0.626086 0.256862
222 1 0.774441 0.124204 1.00196 1.08086 -3.26832 0.498627 -0.399259 -0.221666
227 1 0.825202 0.100422 0.0260479 0.760973 -3.29658 0.121048 -0.109706 -0.460164
1825 1 0.799369 0.100573 0.0492198 0.386883 -3.34549 0.0320796 -0.184559 0.0134609
228 1 0.799881 0.124172 0.0245485 0.493321 -3.32116 0.0234084 -0.028762 0.192918
232 1 0.852747 0.123581 0.0237192 1.60219 -3.27984 -0.829347 0.86165 0.184497
309 1 0.849291 0.150233 0.998299 0.788099 -3.30418 0.462892 -0.0335212 0.691878
1909 1 0.852899 0.148567 0.0495797 1.7196 -3.27213 -0.887292 0.262986 0.0933718
226 1 0.824515 0.124084 0.998429 0.613991 -3.32609 0.187261 -0.197 0.556951
230 1 0.876212 0.125219 -0.00242659 1.22733 -3.24217 -0.107411 -0.285004 0.513712
236 1 0.897357 0.123229 0.0246152 1.46611 -3.33739 0.682102 0.588395 0.222378
1834 1 0.923713 0.124839 0.0517228 0.797832 -3.36229 0.496799 0.122664 -0.683204
239 1 0.974044 0.10011 0.0255712 0.512274 -3.29024 0.600416 -0.023639 0.0502341
1761 1 1.00192 0.0994134 0.0497118 0.718699 -3.36718 -0.463946 0.1872 -0.129909
240 1 0.950438 0.124588 0.0241759 0.857063 -3.27919 -0.313829 0.0862559 0.719735
1838 1 0.973597 0.126904 0.0494673 1.31288 -3.32982 0.456401 -0.525954 0.500445
1837 1 0.951415 0.100334 0.0507871 0.630974 -3.26822 -0.626069 0.314943 -0.0232492
238 1 0.976504 0.123806 0.00135539 0.38752 -3.26972 0.146609 -0.202679 -0.452453
243 1 0.0255441 0.150137 0.0252763 0.301667 -3.33052 0.00929262 -0.00976448 0.358589
248 1 0.0503488 0.174089 0.0247322 0.441726 -3.29878 0.0124083 -0.00353527 0.284088
323 1 0.0258552 0.200146 0.0262097 0.446615 -3.3454 0.0560331 -0.0687625 -0.114838
1841 1 1.00055 0.151235 0.0518618 0.405663 -3.29733 0.316104 0.081964 0.00657674
1845 1 0.0517938 0.14899 0.0503401 0.467498 -3.32817 -0.711959 -0.016871 0.0567627
247 1 0.0765082 0.149512 0.0261544 0.338398 -3.30425 0.00695063 0.0661929 0.15782
252 1 0.100981 0.176719 0.0273712 1.54973 -3.30986 0.171906 -0.534184 -0.574539
246 1 0.0750877 0.175317 1.00042 0.382705 -3.30968 0.154405 -0.246395 -0.131185
327 1 0.0740865 0.198553 0.0248608 0.788235 -3.28045 0.146153 0.251314 -0.0743571
253 1 0.148374 0.148909 0.998741 0.786395 -3.26401 0.326671 0.0976091 0.241794
255 1 0.176192 0.147275 0.0264037 1.37912 -3.23157 -0.364278 0.385136 -0.49864
256 1 0.150091 0.174053 0.0252603 0.258648 -3.29638 0.00327078 0.28207 -0.117052
250 1 0.124283 0.174714 6.50527e-05 0.486299 -3.31888 0.206571 -0.19395 0.121281
1854 1 0.173171 0.176423 0.0503414 1.72741 -3.30522 0.369325 -0.593012 0.163644
260 1 0.199483 0.172721 0.0245991 0.361956 -3.2909 -0.187461 -0.122005 -0.046864
339 1 0.222923 0.197327 0.0247711 0.789478 -3.30154 0.173031 0.147078 -0.197158
1857 1 0.198555 0.149628 0.0503355 0.666855 -3.28784 0.373537 0.00240151 0.174345
1858 1 0.223842 0.173992 0.0492924 0.426068 -3.28487 0.292698 -0.570378 0.409694
263 1 0.276234 0.148683 0.0250298 0.69629 -3.24748 -0.415457 0.0680137 0.257712
1861 1 0.249425 0.146013 0.0474551 2.08088 -3.27525 0.125702 0.499813 0.544265
264 1 0.248456 0.171979 0.0248498 0.691839 -3.33099 0.367627 0.351251 0.0318461
1862 1 0.273053 0.174615 0.0507257 0.895763 -3.32356 0.176564 -0.643082 -0.162457
343 1 0.273612 0.198428 0.0262632 0.490751 -3.2711 -0.102973 0.0872508 -0.488566
1941 1 0.247699 0.197799 0.0502931 0.616451 -3.27898 0.406417 0.156458 0.126241
268 1 0.297594 0.174432 0.0248759 0.630714 -3.32045 0.409745 -0.0787667 0.159157
1866 1 0.32545 0.175192 0.0511817 0.457784 -3.35191 -0.282364 -0.257471 -0.440526
272 1 0.350804 0.174723 0.0261833 0.45357 -3.28492 -0.470055 0.19313 -0.0026584
1949 1 0.349232 0.20102 0.0482621 0.847622 -3.36336 0.40763 -0.134919 0.104266
271 1 0.375666 0.149904 0.0249699 0.59836 -3.31398 -0.0128805 -0.271896 0.066034
276 1 0.399695 0.175549 0.0267335 0.739778 -3.27953 0.657294 -0.186703 -0.419663
351 1 0.375833 0.200005 0.0227351 1.31895 -3.27287 -0.251333 0.0623938 0.792402
270 1 0.374984 0.173683 0.00234158 1.31188 -3.29002 0.0704632 0.453676 -0.525901
280 1 0.447897 0.175944 0.0275581 1.84442 -3.23019 0.471447 -0.506338 -0.290088
1957 1 0.451598 0.200321 0.0494568 0.639665 -3.28971 -0.310779 -0.000321062 0.119812
1874 1 0.424834 0.175282 0.0522033 0.574286 -3.31057 -0.326345 0.09263 -0.19769
279 1 0.474448 0.14958 0.0248985 0.616119 -3.36315 -0.259746 0.0507013 0.238417
278 1 0.473154 0.17316 0.00218533 1.55439 -3.34282 0.436549 -0.044143 -0.340103
1881 1 0.500834 0.150371 0.0506469 0.355149 -3.30446 -0.183532 -0.17036 -0.101314
283 1 0.525501 0.14946 0.0253033 0.297068 -3.26978 -0.0898839 -0.0338149 0.138276
284 1 0.500793 0.172591 0.0258749 0.770238 -3.28476 -0.168019 0.478309 -0.303884
282 1 0.524792 0.174084 1.00124 0.492365 -3.26091 -0.0919777 0.178193 -0.488494
288 1 0.550104 0.176147 0.023482 0.898868 -3.25702 -0.366897 -0.288238 0.967586
1886 1 0.573554 0.173565 0.049351 0.638858 -3.32034 -0.162532 -0.00341358 0.0858766
286 1 0.572827 0.17429 0.000575475 0.747012 -3.19973 0.3982 0.101472 -0.600031
292 1 0.596054 0.176172 0.0250885 2.12583 -3.30035 0.99625 -0.300195 0.0224623
369 1 0.598726 0.198308 1.00039 0.824696 -3.29275 0.285016 0.275772 0.0501743
371 1 0.626974 0.199595 0.0266875 1.78143 -3.28896 -0.937894 -0.106325 -0.276192
290 1 0.625201 0.175234 1.00071 0.344664 -3.30455 -0.449203 0.0724334 -0.183318
1890 1 0.625857 0.175078 0.0496468 0.753234 -3.32189 -0.403273 0.00045579 -0.160916
1893 1 0.649236 0.147417 0.0507391 1.31744 -3.24945 0.0991133 0.302085 -0.359879
296 1 0.649739 0.17528 0.02507 0.537492 -3.22824 0.445389 -0.217918 -0.256919
300 1 0.699779 0.175363 0.0228195 0.919121 -3.28311 -0.239135 -0.683979 0.354777
1894 1 0.672866 0.172275 0.0491724 1.11105 -3.30734 0.168951 0.339368 -0.0883179
377 1 0.702 0.199597 0.999631 0.803094 -3.23836 -0.402405 0.0104185 -0.518079
294 1 0.675691 0.17695 0.997113 1.93265 -3.22974 0.163589 -0.806226 0.6893
304 1 0.753301 0.175536 0.0244324 1.69468 -3.30414 -0.584625 -0.67864 -0.0389468
379 1 0.724574 0.198188 0.0244175 0.517808 -3.24631 0.493299 0.108545 0.113957
1981 1 0.750562 0.198142 0.0470529 1.36903 -3.28535 -0.164108 0.263281 0.757628
301 1 0.752226 0.148443 0.000599823 0.619318 -3.32651 -0.322689 0.56587 0.209973
298 1 0.725889 0.175281 1.00001 0.455347 -3.34584 0.233772 -0.657553 -0.173517
381 1 0.751379 0.198799 0.99903 0.587843 -3.27543 -0.547574 0.28076 0.0105707
303 1 0.77814 0.150376 0.0278466 2.32961 -3.2685 -0.543505 0.0206577 -0.929442
383 1 0.774603 0.201641 0.0231841 1.51615 -3.26425 0.536959 -0.198951 0.282807
308 1 0.80132 0.176172 0.0248775 0.772012 -3.31242 -0.560328 -0.446011 0.0676062
302 1 0.775098 0.174156 0.998645 0.611291 -3.28918 0.353493 -0.295234 0.128957
311 1 0.875373 0.150254 0.0251587 0.622307 -3.26739 -0.00817795 -0.204754 -0.321157
307 1 0.82586 0.149224 0.0249123 0.416433 -3.34618 -0.304268 -0.27842 0.06203
387 1 0.823413 0.200585 0.0240048 0.774683 -3.29427 0.366096 0.0210889 0.310939
312 1 0.848688 0.173275 0.0240498 1.146 -3.27912 0.0927079 0.515756 0.415676
1910 1 0.874337 0.175612 0.0500746 0.562301 -3.29271 -0.102468 0.0784683 -0.0633894
310 1 0.875732 0.175348 0.00264516 1.13249 -3.30611 -0.276747 -0.0350998 -0.973677
306 1 0.824648 0.17571 0.999858 0.396644 -3.22072 0.194648 -0.317904 0.0546775
315 1 0.924984 0.149687 0.0254764 0.394447 -3.32216 -0.578785 -0.445504 0.157271
316 1 0.898477 0.176594 0.0258634 1.55893 -3.274 0.865443 -0.363051 0.219658
395 1 0.925722 0.198881 0.0261103 0.768394 -3.33205 0.455885 -0.00604896 -0.292915
1914 1 0.926486 0.176373 0.0504984 0.869761 -3.29259 -0.230698 -0.188372 -0.484342
244 1 0.000849577 0.175611 0.0269683 0.498054 -3.3285 0.334148 -0.262401 -0.106914
319 1 0.977548 0.149294 0.0279226 1.81713 -3.21396 -0.44756 0.283634 -0.568657
320 1 0.951939 0.172484 0.0240962 1.3041 -3.2242 -0.0714645 0.53471 0.745794
397 1 0.952153 0.19836 1.00104 0.439878 -3.31893 -0.613348 0.0591279 -0.349172
1917 1 0.948262 0.151335 0.0496547 1.11389 -3.2726 0.446658 -0.550641 0.206213
1997 1 0.952477 0.201681 0.0496087 1.63827 -3.30256 -0.243566 -0.484903 -0.0697758
241 1 0.999229 0.15 0.0016232 0.678685 -3.26336 0.327621 0.0216465 -0.157598
325 1 0.0490206 0.198964 1.00081 0.471291 -3.26189 -0.0208139 0.276473 -0.0542116
328 1 0.0525215 0.226211 0.0264129 1.56668 -3.15577 -0.763267 -0.969594 -0.617819
2005 1 0.0512805 0.249493 0.0490071 0.350891 -3.26044 -0.0431595 0.252544 0.36182
321 1 1.00309 0.200264 0.999135 0.849761 -3.28758 -0.208064 -0.029799 0.476856
401 1 1.00287 0.248663 0.999516 0.558267 -3.24932 -0.0969018 0.250041 -0.147463
1922 1 0.0274199 0.223247 0.0491924 0.99551 -3.29033 -0.274896 0.160744 0.236318
332 1 0.098825 0.223347 0.025396 0.594034 -3.30475 0.143963 0.0530485 -0.077255
407 1 0.075262 0.249037 0.0242812 0.336808 -3.21024 0.475698 0.624874 0.000194246
1926 1 0.074429 0.22425 0.0498565 0.335248 -3.24179 0.793977 0.222199 0.484467
331 1 0.126086 0.201824 0.0232148 2.11276 -3.26276 -0.222104 -0.797123 0.513825
336 1 0.150502 0.222956 0.0257821 0.666527 -3.19803 -0.27478 0.0120394 -0.154788
335 1 0.176427 0.197788 0.0241726 1.04311 -3.29886 -0.344169 0.202145 0.368207
334 1 0.176364 0.224338 1.00061 0.824518 -3.23957 -0.824399 -0.00523518 -0.782664
1930 1 0.123991 0.224055 0.0512198 0.65427 -3.33897 0.330939 0.307951 -0.490408
1934 1 0.173012 0.224171 0.0509758 0.726714 -3.29558 0.824794 0.150614 -0.140778
340 1 0.199872 0.222995 0.0224718 1.87027 -3.20815 0.0469791 -0.0411111 1.32692
417 1 0.198631 0.25053 0.000350453 0.950698 -3.26989 -0.259556 -0.282202 0.198893
419 1 0.222221 0.247976 0.0266825 0.634079 -3.29099 0.242239 -0.0498141 -0.252282
1938 1 0.224527 0.222512 0.049874 0.82772 -3.28677 -0.553513 0.448298 0.146851
344 1 0.248832 0.222667 0.0269809 0.803603 -3.29147 0.110485 0.337481 -0.502535
2021 1 0.248315 0.249574 0.0505395 0.412248 -3.29341 0.33714 -0.362214 0.0335262
1942 1 0.273892 0.224381 0.0500507 0.236929 -3.3198 -0.00347971 0.22136 0.0890208
423 1 0.273475 0.249767 0.0256747 0.384823 -3.33501 0.0579445 -0.038527 0.19772
347 1 0.322522 0.19904 0.0251895 0.679156 -3.34136 0.411561 -0.0241296 0.0275823
348 1 0.298563 0.22476 0.0250875 0.162813 -3.30642 0.0119285 0.105981 -0.1306
427 1 0.325224 0.248887 0.0244047 0.427683 -3.32446 -0.359978 0.141686 0.178541
2025 1 0.299268 0.250282 0.0509123 0.641497 -3.30743 0.319541 -0.403028 -0.439162
352 1 0.350694 0.225045 0.0244819 0.259731 -3.33447 -0.208086 -0.283169 0.18896
349 1 0.35026 0.199795 0.000833823 0.202075 -3.3459 -0.012093 0.00251975 -0.05478
350 1 0.376649 0.225834 1.00051 0.841714 -3.28357 -0.243271 -0.416862 -0.0610722
356 1 0.400215 0.223814 0.0256511 0.644618 -3.24827 0.18994 0.220097 -0.0469116
431 1 0.377875 0.24896 0.0245386 0.987741 -3.26134 -0.232777 0.217404 0.588213
1953 1 0.400041 0.20171 0.0495239 0.568659 -3.29248 -0.342256 -0.480416 0.175057
353 1 0.400901 0.19974 0.000322611 0.297244 -3.33183 0.237289 -0.130761 -0.212817
355 1 0.424987 0.199689 0.0258167 0.228352 -3.27072 -0.118059 0.205639 -0.216929
357 1 0.45144 0.199432 0.00117063 0.632889 -3.33382 -0.290982 0.247518 -0.260867
435 1 0.423477 0.2499 0.0256429 0.661042 -3.29044 0.368313 -0.252092 0.0166144
1954 1 0.425378 0.22455 0.0503808 0.28898 -3.29906 0.452181 0.119273 -0.138114
360 1 0.450368 0.223513 0.0242502 0.61093 -3.36586 0.238108 0.366374 0.0485996
354 1 0.423261 0.226213 1.00048 1.17804 -3.33003 0.564702 -0.512655 -0.104199
359 1 0.47748 0.199407 0.024945 1.08264 -3.31347 -0.16294 0.0312149 0.0250321
363 1 0.524152 0.200378 0.0251467 0.308767 -3.30263 -0.307325 -0.178179 -0.0450439
1958 1 0.475366 0.225315 0.0502068 0.399616 -3.26036 -0.152507 0.0906011 -0.526731
364 1 0.500118 0.225921 0.0267011 0.836034 -3.31123 0.00667821 0.0700525 -0.545645
443 1 0.527003 0.250794 0.0268744 1.18227 -3.23743 -0.822934 0.0830527 -0.531107