ITEM: TIMESTEP
3750
ITEM: NUMBER OF ATOMS
32000
ITEM: BOX BOUNDS pp pp pp
1.3838609687003287e+00 7.9616139031299710e+01
-7.3127338526957431e-01 8.1731273385269844e+01
-7.4832515654500043e-01 8.1748325156544780e+01
ITEM: ATOMS id type xs ys zs c_csym c_peratom fx fy fz
8 1 0.0516331 0.024751 0.0263407 0.988485 -3.32876 -0.363627 -0.323714 -0.393378
83 1 0.0268306 0.0488868 0.0238904 1.38518 -3.28438 -0.272428 0.240112 0.522327
1602 1 0.0245225 0.0249279 0.0508 0.399589 -3.3884 0.0906271 -0.0122537 0.0698195
1685 1 0.0500091 0.0512082 0.0499755 0.71569 -3.32224 0.0782157 -0.419451 0.32036
4 1 0.998585 0.0268126 0.0246229 1.35729 -3.31156 0.471254 -1.08118 0.0853806
3 1 0.0252415 1.00054 0.0265754 0.676639 -3.37982 -0.306185 0.125305 -0.37744
1681 1 1.00143 0.0508895 0.0489737 1.00954 -3.32171 -0.189724 -0.260128 0.306693
1605 1 0.0507062 -0.00146286 0.0499294 0.546023 -3.31293 -0.282047 0.347331 0.150251
12 1 0.0991048 0.0248649 0.025053 0.804044 -3.34209 -0.125943 -0.178263 -0.0467577
87 1 0.073353 0.0499472 0.0236334 1.3447 -3.31875 0.461021 0.122564 0.315799
1689 1 0.0999056 0.0479554 0.051586 0.627267 -3.33215 -0.0122047 0.299229 -0.271261
7 1 0.0762751 0.999547 0.0253829 0.477396 -3.35234 -0.0913351 0.0248081 -0.356658
1606 1 0.0747249 0.0241225 0.0508877 0.363927 -3.29097 -0.220724 0.366671 0.00658766
9 1 0.102463 0.997994 -0.000987046 1.42668 -3.30514 -0.698445 0.765315 0.275196
16 1 0.149576 0.0230557 0.0255912 0.750328 -3.26241 0.247696 0.179718 0.256036
1610 1 0.124845 0.0233435 0.0499494 0.69944 -3.25271 -0.334123 0.172059 0.561225
1693 1 0.150832 0.0505639 0.051552 0.78857 -3.27496 -0.141203 -0.393842 0.170225
1613 1 0.148045 1.00067 0.0505309 0.917031 -3.35238 0.70475 -0.530928 0.177833
91 1 0.125568 0.0472411 0.0290983 2.12292 -3.27496 -0.255122 0.804391 -0.618495
10 1 0.126362 0.0256381 0.000789004 0.614259 -3.31445 -0.533626 -0.336101 -0.200972
15 1 0.1761 0.999707 0.026509 0.542352 -3.29714 -0.397264 0.198223 -0.142206
20 1 0.201531 0.0253302 0.0264806 0.572237 -3.34294 -0.215492 -0.0881134 -0.337803
95 1 0.173919 0.0484221 0.0272367 0.851457 -3.33267 0.54636 0.277318 -0.191316
1614 1 0.17589 0.024063 0.0508273 0.318087 -3.35674 -0.15327 -0.145331 0.0901978
1697 1 0.201862 0.0483878 0.0507251 0.460701 -3.33828 -0.312773 0.51685 -0.221001
97 1 0.201565 0.0511767 0.999641 0.759001 -3.29993 -0.174837 -0.206573 0.370188
24 1 0.250081 0.022665 0.0256127 0.906703 -3.35591 0.235948 0.564851 -0.137267
99 1 0.225433 0.0504601 0.0242911 0.621251 -3.36429 0.25472 -0.0125395 0.113695
1618 1 0.225145 0.0224951 0.0510893 0.950843 -3.28332 0.19161 0.100866 -0.201546
1701 1 0.250726 0.0467678 0.0492545 1.31897 -3.29937 0.0973708 0.322099 -0.281545
18 1 0.224171 0.026278 1.45363e-05 0.988618 -3.30565 0.323231 -0.213262 0.216464
28 1 0.300803 0.0249889 0.0254836 0.308588 -3.33151 -0.191777 0.18338 -0.361968
103 1 0.276187 0.051137 0.0251526 0.938919 -3.32319 -0.04209 -0.531233 -0.380038
1622 1 0.275622 0.0237714 0.050067 0.154943 -3.28065 -0.286969 0.190019 -0.153606
1705 1 0.299742 0.0507828 0.0495258 0.550316 -3.28707 0.32819 -0.377682 0.280987
23 1 0.277323 -0.00052891 0.0240451 1.03245 -3.316 -0.648658 -0.0328184 0.085663
32 1 0.350499 0.0235344 0.0260509 0.569098 -3.3214 0.0624092 0.383577 -0.252851
107 1 0.324611 0.0497365 0.0257401 0.495404 -3.32972 0.233349 0.0234695 -0.466783
1626 1 0.32596 0.0250859 0.0491622 0.399252 -3.31951 -0.415064 -0.166825 0.445289
1709 1 0.350489 0.0501775 0.0499913 0.380103 -3.25908 0.00238482 -0.375484 -0.199452
26 1 0.325608 0.0249774 -0.000378161 0.366433 -3.37459 -0.366089 -0.100594 0.110641
36 1 0.398854 0.0237747 0.0230591 0.951109 -3.29648 0.0786722 0.226419 0.560443
111 1 0.375974 0.0499147 0.0269371 0.815272 -3.33874 -0.0716806 -0.307123 -0.55452
1630 1 0.376158 0.0236131 0.0507893 0.80061 -3.30826 0.02086 0.199106 -0.425722
1713 1 0.401273 0.0480076 0.0503233 0.682103 -3.33223 -0.227506 0.397282 0.192626
113 1 0.400482 0.0511218 1.00016 0.515082 -3.30723 -0.430264 -0.361205 -0.135813
1634 1 0.425692 0.0258496 0.0477515 0.755631 -3.27848 -0.170236 -0.602408 0.16107
40 1 0.450055 0.0256483 0.0228544 0.205069 -3.31737 -0.0958295 0.0814505 0.0889916
115 1 0.423837 0.0492138 0.0244596 0.485266 -3.33734 0.315768 0.324836 -0.0725384
1717 1 0.450139 0.0501117 0.049175 0.273703 -3.27558 0.0680076 0.0410548 -0.352259
35 1 0.423527 0.000264937 0.0226074 0.505045 -3.34457 0.633314 -0.109827 0.166336
34 1 0.424811 0.0258208 -0.000566648 0.376819 -3.32974 0.241623 0.139451 -0.25806
1638 1 0.47451 0.0266245 0.0487058 0.55457 -3.32208 0.364435 -0.56968 -0.150506
38 1 0.474983 0.0248024 -0.00103299 0.163792 -3.36857 0.0646764 0.184639 -0.163623
44 1 0.500305 0.0260922 0.0242495 0.392895 -3.32745 -0.0890301 -0.517207 0.152057
119 1 0.475832 0.0504295 0.0238352 0.277666 -3.3539 -0.176462 0.0646172 -0.0338947
123 1 0.526228 0.0492075 0.0235222 0.603676 -3.29422 -0.0574283 0.127937 0.623237
1721 1 0.501453 0.049554 0.0477093 0.945797 -3.3189 -0.0192098 -0.0170816 0.616571
1641 1 0.499357 0.998737 0.047519 0.804721 -3.39719 -0.147902 0.431028 0.43399
41 1 0.500906 -0.000763536 1.00065 0.56926 -3.29602 -0.545104 0.111393 0.203268
1642 1 0.527176 0.0244833 0.0492333 0.758463 -3.34065 -0.746601 -0.103375 -0.0681162
48 1 0.551047 0.0234396 0.0238885 0.495841 -3.28789 -0.431304 0.194593 0.475163
127 1 0.573899 0.0491862 0.0244795 0.842041 -3.35998 0.470981 0.0553512 -0.141646
1646 1 0.575037 0.0238499 0.0489998 0.255587 -3.35587 -0.0151168 0.108632 0.467058
1725 1 0.551221 0.0488376 0.0503994 0.379009 -3.33908 -0.0603169 0.155263 -0.0333772
47 1 0.575579 0.998353 0.0250363 0.277248 -3.30784 -0.363013 -0.108996 0.259804
52 1 0.599716 0.0240627 0.0260357 0.435003 -3.32205 0.135001 0.0993789 -0.401031
131 1 0.62533 0.049024 0.0247276 0.108078 -3.30784 0.0577901 -0.0467628 0.0788273
1650 1 0.624253 0.0240317 0.049935 0.16972 -3.36291 0.373243 -0.109544 0.281837
1729 1 0.601584 0.0488606 0.0492859 0.551838 -3.25941 -0.425275 -0.124062 0.0364211
1649 1 0.59975 0.997966 0.0498877 0.354985 -3.32767 0.194943 0.295532 0.138601
51 1 0.62457 1.00039 0.0243805 0.511575 -3.31982 0.0182112 -0.0635641 0.162412
56 1 0.64971 0.0247797 0.026021 0.36989 -3.33752 -0.0484579 -0.315096 -0.262548
135 1 0.675218 0.0490927 0.0252135 0.230308 -3.28028 0.0902027 0.303733 -0.374311
1653 1 0.649087 -0.00119094 0.0503313 0.356694 -3.32987 -0.0866584 0.245511 -0.122054
1654 1 0.67516 0.0260116 0.0481463 0.739598 -3.30401 -0.0269381 -0.385656 0.751932
1733 1 0.649476 0.0502886 0.0501478 0.394402 -3.31018 -0.311838 -0.375687 0.0162399
55 1 0.674359 0.998587 0.0260828 0.693144 -3.36212 0.0022315 0.227966 -0.282898
54 1 0.67565 0.0251178 1.00063 0.264557 -3.3141 -0.297829 -0.218422 -0.216334
60 1 0.699663 0.0253609 0.0250919 0.234105 -3.32248 0.351681 -0.206401 0.0541107
139 1 0.726377 0.0494138 0.0226029 1.43388 -3.31721 -0.483563 0.0193487 0.865764
1658 1 0.72505 0.0264037 0.05142 0.669599 -3.28311 0.0879077 -0.774227 -0.604263
1737 1 0.701761 0.0499117 0.0489713 0.653324 -3.27624 -0.50443 -0.00902404 -0.0622613
137 1 0.700663 0.0493331 0.999053 0.345912 -3.31525 -0.177364 0.367408 0.161917
59 1 0.724559 0.999925 0.0266523 0.312202 -3.3435 0.00984128 0.200093 -0.301608
1657 1 0.700521 1.00047 0.049654 0.331609 -3.32152 -0.364229 0.0519579 0.186724
58 1 0.723588 0.0243609 1.00044 0.535269 -3.30643 0.435233 0.0245914 -0.0479501
64 1 0.750992 0.0243774 0.0259204 0.607449 -3.35167 -0.581586 0.30447 -0.187777
143 1 0.774709 0.0494204 0.0243335 0.398524 -3.33581 -0.156609 0.366982 -0.100698
1662 1 0.775343 0.0264194 0.0491819 0.732318 -3.34463 0.259571 -0.28969 0.293305
1741 1 0.748894 0.0497045 0.0512491 0.502618 -3.26438 0.373575 0.0964376 -0.695025
1661 1 0.750451 1.00111 0.0505829 0.304588 -3.31858 -0.268387 -0.0950461 0.0724106
62 1 0.773904 0.023884 0.999192 0.424438 -3.32484 0.185475 0.37813 -0.106036
68 1 0.800147 0.027371 0.022143 2.34724 -3.26965 -0.286669 -0.856754 0.944618
147 1 0.824719 0.0503039 0.025273 0.578567 -3.26701 -0.321984 -0.0801965 0.0963937
1666 1 0.821461 0.0256036 0.0508954 1.24747 -3.3563 0.130342 -0.0546026 -0.201525
1745 1 0.797712 0.0519011 0.0505484 1.03929 -3.26639 0.817349 -0.786131 0.306392
67 1 0.823605 0.998717 0.0261522 0.684033 -3.33027 -0.371304 0.425811 0.0760451
1665 1 0.798743 1.00006 0.0505751 0.350033 -3.32736 0.237667 -0.0394311 -0.390883
145 1 0.799426 0.0494786 0.99885 0.449451 -3.28612 -0.486258 0.313123 0.0238211
72 1 0.847679 0.025234 0.0257141 0.467116 -3.29733 0.0583376 -0.341132 -0.0209936
151 1 0.874415 0.0499864 0.0248985 0.386532 -3.33278 -0.210402 0.336864 0.222166
1670 1 0.874453 0.0235559 0.0496219 0.698797 -3.32483 -0.187218 0.313914 0.616962
1749 1 0.847602 0.0480542 0.0495127 1.05932 -3.31725 0.440908 0.408745 0.319072
149 1 0.849679 0.0477426 1.00148 1.43544 -3.31145 -0.326721 0.718879 -0.330426
1669 1 0.847548 1.00075 0.0512952 0.650043 -3.33174 0.087797 -0.282556 -0.31342
71 1 0.87494 1.0017 0.0255326 0.582271 -3.28991 -0.407529 -0.735027 0.270159
75 1 0.923425 1.0002 0.0236394 1.36826 -3.31676 0.0492906 -0.0729367 0.458795
76 1 0.897577 0.0256287 0.0259607 1.02701 -3.25049 1.19437 0.191533 0.0140981
155 1 0.924262 0.051381 0.0252574 0.442585 -3.38348 0.0580717 -0.351822 0.301989
1674 1 0.923799 0.0254904 0.0502064 0.435219 -3.25057 -0.466844 0.262628 0.662784
1753 1 0.898686 0.0498464 0.0513275 0.226756 -3.34147 0.163131 -0.0592894 -0.178697
74 1 0.924756 0.026672 -0.000715987 0.928347 -3.31476 0.0134057 -0.481877 0.60959
80 1 0.946602 0.0245627 0.0287357 2.85188 -3.27087 1.09737 0.305128 -1.13551
159 1 0.97435 0.0483277 0.0252725 0.927335 -3.30958 -0.529484 0.407687 0.400126
1678 1 0.975585 0.0249737 0.0505451 0.754907 -3.31141 -0.141342 -0.00283875 -0.245926
1757 1 0.949238 0.0503099 0.0531368 1.3179 -3.33338 -0.239588 0.10487 -0.722096
1677 1 0.949142 1.00022 0.0508535 0.437795 -3.30883 -0.175891 -0.287622 -0.131741
1601 1 -0.000221936 0.999018 0.0523488 0.818752 -3.33984 0.080829 0.222658 -0.404411
79 1 0.974213 0.997729 0.0262622 0.853773 -3.32329 0.334949 0.944321 0.0342127
77 1 0.948518 0.999635 0.00150629 0.442214 -3.32083 0.146372 -0.131519 0.00054813
163 1 0.0251548 0.0997067 0.0238024 0.482928 -3.36246 -0.119018 0.00429123 0.278376
1682 1 0.0257739 0.0743647 0.0522731 0.757823 -3.3103 0.0770667 0.257363 -0.405336
1761 1 1.00032 0.0997706 0.0499576 0.442486 -3.33496 0.0781261 -0.24355 0.462788
88 1 0.0513491 0.0759788 0.0260242 0.968879 -3.35075 -0.265203 0.00449409 -0.118185
1765 1 0.0497128 0.0999924 0.0517324 0.563388 -3.34805 0.28532 -0.208539 -0.482515
82 1 0.0248049 0.075298 0.000256778 0.465416 -3.32075 0.322672 -0.188384 -0.13558
92 1 0.101824 0.0754239 0.0253854 0.994674 -3.29298 -0.599938 -0.834006 0.380341
167 1 0.0772558 0.0995614 0.0251782 0.899927 -3.306 -0.708343 -0.247327 0.53229
1686 1 0.076111 0.0734778 0.051057 0.825079 -3.33191 -0.132477 0.425801 -0.34696
1769 1 0.101935 0.0995027 0.0510407 0.823067 -3.31386 -0.552614 0.515771 0.155419
169 1 0.0994385 0.0996194 6.09062e-05 0.491914 -3.27407 0.240318 -0.140706 -0.265662
96 1 0.148821 0.0739077 0.0282424 0.639305 -3.33644 0.171158 0.256011 -0.381009
171 1 0.123303 0.0999083 0.0256766 0.634898 -3.26834 0.53563 0.303915 0.14499
1690 1 0.12423 0.0753658 0.0525432 0.824008 -3.31848 0.376291 -0.412442 -0.0365783
1773 1 0.149526 0.0994628 0.0505102 0.427064 -3.35162 0.00934445 -0.0223492 0.171572
173 1 0.149435 0.0996649 0.00178956 0.356325 -3.33966 0.362214 -0.282293 -0.188357
100 1 0.200044 0.0759981 0.0249602 0.808774 -3.34478 0.243953 -0.369032 0.22206
175 1 0.174839 0.0992704 0.0258488 0.156478 -3.33391 0.112029 -0.194061 -0.0713035
1777 1 0.201103 0.099296 0.0505243 0.253765 -3.36288 0.258385 0.0916331 0.103569
1694 1 0.177156 0.0738442 0.0514361 0.516982 -3.35147 -0.0790087 0.0690108 -0.0917234
94 1 0.175255 0.0731032 0.00215866 0.905169 -3.30695 -0.289202 0.552433 0.11248
104 1 0.251615 0.0756288 0.0253047 0.4737 -3.29028 -0.101068 -0.419978 -0.301494
179 1 0.22685 0.0992075 0.0265727 0.525711 -3.30591 -0.303715 0.223772 -0.183474
1698 1 0.228064 0.0737269 0.0494696 1.03493 -3.28037 -0.695836 0.0931218 -0.0245635
1781 1 0.250671 0.099124 0.0510802 0.486916 -3.31811 0.0733876 0.0776277 -0.0113509
98 1 0.226513 0.0768835 0.000666312 0.955064 -3.35239 0.107509 -0.404341 -0.215818
181 1 0.251525 0.100257 -0.000802995 0.749486 -3.28169 0.0746269 -0.0741612 0.27663
108 1 0.301683 0.0748799 0.0249854 0.371018 -3.31004 -0.24875 -0.00595113 -0.174621
183 1 0.276677 0.0980785 0.0272023 1.18519 -3.32416 0.246153 0.306622 -0.347287
1702 1 0.275035 0.0725413 0.0507542 0.86943 -3.31475 -0.12683 0.725 0.244129
1785 1 0.300979 0.0990848 0.0522285 0.707017 -3.38577 0.0197844 -0.148965 -0.282389
112 1 0.351045 0.073868 0.0259864 0.332773 -3.33188 0.0585666 0.193368 -0.359448
187 1 0.326303 0.0972723 0.0249221 1.35542 -3.3273 0.033726 0.542017 0.216235
1706 1 0.327589 0.0745995 0.0510715 0.645653 -3.33735 -0.500686 0.401346 -0.0384723
1789 1 0.351263 0.100951 0.0507293 0.793208 -3.38786 -0.000352444 -0.296114 0.000185651
116 1 0.399434 0.0746569 0.0255857 0.345695 -3.34262 0.180062 0.143038 -0.0879609
191 1 0.37468 0.101426 0.0256245 0.960535 -3.30944 0.279483 -0.612165 0.157571
1710 1 0.376732 0.073536 0.0506061 0.468697 -3.33672 -0.0825291 0.480288 0.0851015
1793 1 0.400782 0.0998398 0.0502327 0.318763 -3.35154 0.318208 -0.0473864 -0.0814475
120 1 0.449578 0.0736147 0.0241111 0.637006 -3.35418 0.231069 0.0375914 0.107697
195 1 0.426952 0.097897 0.0241854 0.811554 -3.35065 -0.201345 0.4089 0.396138
1714 1 0.425002 0.0747967 0.0513936 0.817352 -3.31814 -0.0968241 -0.0161209 -0.712132
1797 1 0.45212 0.0986195 0.0507471 0.405254 -3.35294 -0.0571795 0.424844 -0.20014
197 1 0.450787 0.0992413 -0.000447393 0.316478 -3.3257 -0.028491 -0.0407818 0.072239
114 1 0.424146 0.0743443 0.998778 0.463296 -3.2846 0.447454 0.225227 0.217442
199 1 0.475718 0.0990369 0.0258063 0.516386 -3.33114 -0.276633 0.334518 -0.0176323
124 1 0.500769 0.0761982 0.0278838 1.80284 -3.30284 0.237667 -0.171627 -0.418342
1718 1 0.475258 0.0736525 0.0505584 0.425629 -3.34451 0.31659 0.194757 0.0103499
1722 1 0.527057 0.073257 0.0502183 0.94927 -3.34958 -0.253824 0.271757 0.0665249
1801 1 0.499775 0.101753 0.0506335 1.15197 -3.34121 0.274751 -0.53417 0.26935
203 1 0.52517 0.101656 0.0263485 0.895957 -3.29529 -0.0169006 -0.497326 -0.49373
201 1 0.499868 0.0998029 0.99974 0.458712 -3.28531 0.524163 0.371597 0.27608
118 1 0.477911 0.0761577 1.00118 1.20244 -3.28594 -0.56193 -0.48778 -0.0776738
128 1 0.551501 0.0754349 0.0248334 0.492276 -3.36753 -0.0943116 0.0583835 -0.101219
207 1 0.577193 0.0994856 0.0233038 0.516454 -3.33629 -0.454476 0.147141 0.559922
1726 1 0.577624 0.0731829 0.0486025 0.967359 -3.32713 -0.483443 0.286481 -0.000186494
1805 1 0.54922 0.0997602 0.0490838 0.948427 -3.29637 0.932206 -0.325841 0.0951227
132 1 0.601593 0.0736205 0.0240291 0.244353 -3.30902 -0.356607 -0.0197353 -0.0661905
209 1 0.599937 0.098124 -0.000257217 0.643213 -3.2902 0.485655 0.2853 -0.234001
211 1 0.625556 0.0986944 0.0247783 0.239992 -3.36438 -0.0321839 0.366235 -0.0399593
1730 1 0.623406 0.0738145 0.0497202 0.511596 -3.3178 0.48272 0.165974 0.244635
1809 1 0.600749 0.0987558 0.0502569 0.188134 -3.31664 -0.125075 0.182906 -0.353296
130 1 0.626505 0.0748629 0.000198311 0.602764 -3.3401 0.00383094 -0.0747085 -0.289767
136 1 0.650024 0.074889 0.0242436 0.402189 -3.31468 0.0104338 -0.113426 0.226464
215 1 0.675555 0.100139 0.0261193 0.849941 -3.29198 -0.069692 -0.292118 -0.272578
1734 1 0.674402 0.0718504 0.0483949 1.75996 -3.28289 0.385938 0.853338 0.32692
1813 1 0.650062 0.097869 0.0496196 0.450131 -3.37197 -0.0190338 0.246759 0.301002
213 1 0.651597 0.100529 -0.0013279 1.2029 -3.3083 -0.820547 -0.343436 0.447312
134 1 0.673619 0.0749206 1.00031 0.7936 -3.32954 0.265875 -0.206619 -0.130089
140 1 0.699974 0.0751474 0.0238727 0.46493 -3.35676 -0.0477582 -0.506089 0.180364
219 1 0.724016 0.0994283 0.02511 0.40429 -3.27922 0.477633 -0.454879 -0.0437429
1738 1 0.724494 0.073126 0.0502719 0.375362 -3.32064 0.29923 0.5824 -0.285938
1817 1 0.700266 0.0974142 0.0495531 0.836416 -3.31496 -0.22844 0.386043 0.235231
217 1 0.699923 0.0982518 0.999851 0.470801 -3.33055 0.0262018 0.424987 -0.289897
144 1 0.750485 0.0742526 0.0252468 0.396403 -3.38573 -0.288312 0.110969 -0.0984834
223 1 0.77405 0.0993561 0.0239102 0.275765 -3.34338 0.223535 -0.253321 0.204999
1742 1 0.774673 0.0740265 0.0498901 0.333703 -3.24273 -0.639131 0.468392 0.0959302
1821 1 0.750398 0.0988007 0.0502859 0.403105 -3.32173 -0.340789 -0.256835 -0.0911077
221 1 0.748069 0.0996269 0.998959 0.458155 -3.33883 0.349345 -0.226812 -0.144641
148 1 0.800298 0.0751154 0.0271117 1.51179 -3.23377 -0.56133 -0.420181 -0.743688
225 1 0.797695 0.0988699 -0.000383225 0.620017 -3.33185 0.141251 0.153511 -0.316678
227 1 0.820648 0.0998151 0.0231539 2.61343 -3.2538 0.79738 0.293022 0.451668
1746 1 0.823589 0.0753266 0.0517625 0.603662 -3.3152 0.448825 -0.319072 0.0355908
1825 1 0.799284 0.0977254 0.051266 1.12561 -3.25636 -0.478506 0.452559 -0.149474
152 1 0.847376 0.075644 0.0259558 0.963803 -3.3341 0.432955 -0.297542 -0.114402
231 1 0.874162 0.0996065 0.0275017 0.892342 -3.26839 0.107957 -0.208856 -0.843139
1750 1 0.874336 0.0736413 0.050393 0.328773 -3.322 -0.215559 0.037605 -0.134601
1829 1 0.849791 0.099317 0.0493023 0.744167 -3.31234 -0.494551 0.0266186 0.483693
150 1 0.875897 0.0756219 -0.00032176 0.853503 -3.3432 -0.447424 -0.122004 0.240278
229 1 0.849509 0.0991691 1.00203 1.15608 -3.35306 -0.0139965 -0.145059 -0.539768
156 1 0.898868 0.0745958 0.0253973 0.282597 -3.3312 0.168232 0.0592814 -0.0809845
235 1 0.926854 0.0999014 0.0250674 0.827293 -3.32765 -0.285855 -0.0775995 0.327115
1754 1 0.923019 0.0754675 0.0508473 0.614076 -3.35059 0.672518 -0.129659 -0.0602486
1833 1 0.898972 0.0978058 0.0513612 0.455783 -3.26687 0.102922 0.327959 0.0706602
84 1 1.00202 0.0745176 0.0252177 0.898914 -3.30028 -0.220725 -0.0458422 0.261642
160 1 0.950893 0.0751613 0.0246961 0.545179 -3.28745 -0.296168 -0.114523 0.656808
239 1 0.977542 0.0978884 0.0257432 1.28823 -3.29132 -0.625875 0.589948 -0.0486574
1758 1 0.973622 0.0748978 0.0497592 0.944183 -3.31888 0.462937 -0.383638 0.259412
1837 1 0.952091 0.0996126 0.0533963 1.92767 -3.30583 -0.908754 0.300044 -0.851464
162 1 0.0257863 0.124424 -0.00165445 0.859442 -3.30824 -0.238779 -0.0497264 0.845391
168 1 0.049029 0.124086 0.0265392 0.882989 -3.33507 0.306965 0.0816326 -0.380232
243 1 0.0242464 0.150044 0.0252575 0.338351 -3.35825 0.296636 -0.00985075 0.185821
1762 1 0.0236201 0.124614 0.0485605 0.982033 -3.27477 0.271773 0.0722085 0.503363
1845 1 0.0495772 0.148864 0.0517121 0.592784 -3.37011 0.108426 0.0362345 -0.405168
164 1 -7.30582e-05 0.125286 0.0247787 0.239895 -3.32383 -0.0218622 -0.0740283 -0.330082
1841 1 0.99958 0.150921 0.050273 0.489785 -3.29746 0.533893 0.0371818 0.169833
172 1 0.0985803 0.124624 0.0235941 1.19162 -3.27973 0.537885 0.16343 0.555478
247 1 0.0766832 0.149843 0.0239859 1.09377 -3.33242 -0.450982 0.0333667 0.17073
1766 1 0.0750603 0.125549 0.0495991 0.668277 -3.32534 -0.0776354 -0.576078 0.165853
1849 1 0.0975268 0.149018 0.0511026 1.53979 -3.30296 0.96338 0.166882 -0.220811
166 1 0.0728395 0.122 0.000845378 2.57844 -3.26401 0.0366055 0.780503 0.0964711
176 1 0.150686 0.122983 0.0255894 0.644112 -3.34112 -0.372507 0.536838 0.0465612
251 1 0.124333 0.149847 0.0254656 0.342898 -3.35387 0.209891 -0.280796 0.376892
1853 1 0.150915 0.149109 0.0518817 0.455957 -3.33762 -0.0955685 -0.0667726 -0.388222
1770 1 0.124756 0.125813 0.0511679 0.469324 -3.41435 -0.0555206 -0.0563632 -0.24525
253 1 0.150211 0.151103 1.00166 0.773118 -3.31403 -0.278893 -0.439983 -0.109569
174 1 0.174957 0.12371 -0.00117141 1.17722 -3.2831 0.443633 0.33642 0.818237
180 1 0.200549 0.122976 0.024556 0.542915 -3.36709 0.0540648 0.195189 0.247992
255 1 0.174361 0.148352 0.0252814 0.473152 -3.34467 0.073935 -0.0353747 -0.0290026
1774 1 0.175281 0.124697 0.0499635 0.198107 -3.35253 0.18979 -0.106657 0.13421
1857 1 0.199587 0.149894 0.0488253 0.815772 -3.31264 0.405526 -0.534823 0.3979
184 1 0.25271 0.122519 0.0250318 1.01741 -3.33753 -0.373999 0.447285 0.239318
259 1 0.226332 0.148672 0.0258085 0.214428 -3.35821 -0.0274377 -0.111163 0.0794251
1861 1 0.251371 0.14862 0.0498879 0.348717 -3.37014 0.0364129 0.286803 -0.0557419
178 1 0.227168 0.123346 1.00104 0.389057 -3.35005 -0.12299 0.258021 -0.115649
188 1 0.302017 0.124344 0.0254501 0.248828 -3.28046 -0.0526124 -0.234507 -0.0780329
263 1 0.278755 0.149593 0.0256475 1.00263 -3.33982 -0.376069 0.148914 0.145807
1782 1 0.276462 0.125205 0.0497016 0.455267 -3.347 0.290541 -0.0819571 0.247751
1865 1 0.302993 0.150252 0.0503125 0.868145 -3.3043 -0.608271 -0.157411 -0.0125113
192 1 0.350921 0.12495 0.0246806 0.470076 -3.29315 -0.0392774 0.296743 0.679867
267 1 0.324522 0.150029 0.0227752 1.38829 -3.34069 0.311272 0.172791 0.273358
1786 1 0.32551 0.125178 0.0489857 0.91304 -3.31137 0.551258 -0.267636 0.144076
1869 1 0.351992 0.150919 0.0502227 0.786047 -3.35504 -0.329322 -0.360245 0.300121
269 1 0.351905 0.151835 0.000167981 0.903748 -3.27659 -0.482502 -0.422156 0.386205
190 1 0.375324 0.124327 1.00097 0.344797 -3.32489 0.202824 0.132491 -0.15403
196 1 0.402208 0.122427 0.0248992 1.24662 -3.33503 -0.181672 0.343312 0.2439
271 1 0.375866 0.149988 0.0260761 0.285475 -3.30341 0.0510981 -0.175572 -0.0873013
1790 1 0.377036 0.124903 0.0527015 1.17519 -3.33227 -0.388868 0.178363 -0.597363
1873 1 0.401039 0.150693 0.0492176 0.704439 -3.35572 0.0992272 -0.0801908 0.32143
273 1 0.399188 0.149481 1.00146 0.669732 -3.31536 0.100818 -0.0038458 -0.336922
200 1 0.452079 0.125418 0.0260955 0.871843 -3.33842 -0.175829 -0.455125 -0.304713
275 1 0.424787 0.147668 0.0231514 1.54032 -3.30143 0.192477 0.210741 0.390777
1794 1 0.427862 0.126613 0.0512437 1.7026 -3.27978 -0.640121 -0.935558 -0.523587
1877 1 0.450509 0.149538 0.0484192 0.664504 -3.2832 0.537186 0.557057 0.339883
194 1 0.425721 0.122897 -0.00111284 0.714775 -3.34289 -0.100053 0.219691 0.308082
279 1 0.47717 0.149782 0.0241177 0.759664 -3.32088 -0.0149003 -0.126812 0.135079
204 1 0.499944 0.12506 0.0245622 0.240721 -3.3465 -0.119599 -0.00681861 0.0595843
283 1 0.523444 0.149894 0.0241111 0.671479 -3.35609 -0.058592 -0.0268789 0.111407
1798 1 0.476532 0.125433 0.0521754 0.726527 -3.32015 -0.274925 -0.0679888 -0.307748
1881 1 0.500378 0.149866 0.0503323 0.297385 -3.32798 0.0134029 0.0657931 -0.296791
1802 1 0.527313 0.12441 0.0502358 0.927954 -3.31108 -0.465105 0.568823 -0.146175
208 1 0.550986 0.126484 0.0235553 0.909669 -3.35594 0.256168 -0.152549 0.395019
287 1 0.577849 0.149323 0.0236305 1.16572 -3.31265 -0.67159 -0.279218 0.199691
1806 1 0.576182 0.123615 0.0500812 0.590257 -3.39286 -0.187558 0.13202 -0.348263
1885 1 0.550697 0.151074 0.0488948 0.735261 -3.30358 -0.280302 -0.632771 -0.0480133
212 1 0.601297 0.124674 0.0237473 0.409462 -3.31434 -0.110549 -0.366429 0.62526
291 1 0.626594 0.148125 0.0249703 0.503191 -3.34236 -0.0248141 0.106348 0.114576
1810 1 0.624874 0.123802 0.05104 0.324909 -3.37632 0.0660848 0.333674 -0.361323
1889 1 0.598662 0.151258 0.0502805 1.87076 -3.30415 0.725928 -0.802527 -0.154531
289 1 0.602988 0.148015 -2.8318e-06 1.01206 -3.25617 -0.280595 0.562488 -0.525964
210 1 0.624133 0.123018 0.999216 0.782347 -3.26047 0.411265 -0.247195 0.280607
214 1 0.675167 0.12399 1.00014 0.201608 -3.32241 0.444083 0.237797 -0.0775677
216 1 0.651223 0.123928 0.0250107 0.315209 -3.33389 -0.449414 -0.00163867 0.0640152
295 1 0.675758 0.149851 0.0246819 0.343345 -3.30008 0.285999 -0.453706 0.117821
1814 1 0.675413 0.124872 0.0487967 0.459972 -3.38649 0.117548 0.0268538 0.591751
1893 1 0.650862 0.150605 0.0494155 0.519449 -3.33238 0.00302176 -0.648653 0.0678958
220 1 0.701576 0.123161 0.0249242 0.535405 -3.30532 -0.419295 0.311136 -0.111987
299 1 0.72356 0.148712 0.0241208 0.533199 -3.29434 0.6388 0.0755679 -0.227526
1818 1 0.726723 0.123351 0.0500229 0.7123 -3.33086 -0.209511 0.0114539 0.0148916
1897 1 0.702209 0.148274 0.0496584 0.920635 -3.30359 -0.702895 0.131022 -0.0282553
218 1 0.72526 0.124642 -0.0023756 0.689237 -3.37529 -0.214339 0.159637 0.0904882
224 1 0.749038 0.122465 0.0239798 0.882292 -3.29298 -0.115468 0.578459 -0.16576
303 1 0.773988 0.151262 0.0243362 0.747119 -3.25263 0.101961 -0.774882 -0.184439
1822 1 0.77255 0.124399 0.0486142 0.999155 -3.35242 0.358354 0.0058841 0.351186
1901 1 0.749635 0.149031 0.0466243 1.39902 -3.28807 -0.2156 0.0258074 0.72651
228 1 0.797812 0.124973 0.0245467 0.431724 -3.32995 0.0872601 -0.0822401 -0.0735883
307 1 0.823135 0.149166 0.0253323 0.360931 -3.35338 0.167882 -0.163611 -0.0507835
1826 1 0.822058 0.122121 0.049835 1.25104 -3.3051 0.78619 0.367257 -0.241315
1905 1 0.799527 0.148035 0.0500645 0.591808 -3.30976 -0.276771 0.0524196 -0.00732688
232 1 0.847689 0.123449 0.0254591 0.675574 -3.35464 0.22905 0.257155 0.0318783
311 1 0.875013 0.149183 0.0250465 0.419286 -3.3151 -0.189556 -0.4997 0.0678541
1830 1 0.87631 0.123283 0.051052 0.740778 -3.32237 -0.208845 0.322261 0.109579
1909 1 0.849799 0.146973 0.0507469 0.969453 -3.34507 -0.249967 0.259462 -0.182625
236 1 0.899442 0.121932 0.0266027 1.35184 -3.28246 -0.0704047 0.542447 -0.911663
315 1 0.925153 0.148807 0.0251984 0.494418 -3.32852 0.00501742 -0.0775407 0.0775143
1834 1 0.922183 0.124049 0.0494925 2.29231 -3.29144 0.910351 -0.088229 0.656004
1913 1 0.899938 0.150001 0.0498421 0.491928 -3.32365 0.0906863 0.0193863 0.0479843
240 1 0.951583 0.123512 0.0259578 0.719416 -3.37962 -0.0553139 0.263296 0.115126
319 1 0.976146 0.151551 0.0258835 0.663779 -3.32396 -0.213373 -0.463471 -0.335797
1838 1 0.977316 0.125594 0.0506463 0.724241 -3.32479 -0.519406 -0.302977 0.0657662
1917 1 0.949874 0.148392 0.0514963 1.13133 -3.34933 0.13616 0.0743961 -0.443655
248 1 0.0521838 0.174505 0.0271103 0.536692 -3.34127 -0.496755 -0.188969 -0.163998
323 1 0.0243149 0.199269 0.0264035 0.495075 -3.35819 0.503739 0.327137 -0.0613295
1842 1 0.0264709 0.175181 0.0515708 0.476383 -3.33949 -0.575727 -0.0900943 -0.507695
244 1 0.000661308 0.176277 0.0253861 0.430887 -3.24617 0.234464 -0.648635 -0.026231
1921 1 -5.57427e-05 0.201075 0.0506286 0.503415 -3.32962 0.176797 -0.371495 0.224318
1925 1 0.0522673 0.200094 0.0529886 1.18238 -3.31615 -0.558106 0.220067 -0.538185
252 1 0.100095 0.17665 0.0250439 0.908992 -3.28504 0.249651 -0.605923 0.136485
327 1 0.0757869 0.198779 0.0278205 0.940758 -3.27785 -0.0278492 0.801851 -0.57677
1846 1 0.0770437 0.174667 0.0500186 0.776223 -3.26757 -0.322803 -0.149859 0.477199
246 1 0.0761366 0.175819 0.000423207 0.748588 -3.28148 -0.126278 -0.257891 0.392633
329 1 0.100175 0.200079 -0.000734496 0.57465 -3.31013 -0.153372 0.175797 0.638599
256 1 0.150073 0.174078 0.0264313 0.211278 -3.33263 0.150315 -0.000570113 -0.0924141
331 1 0.124685 0.199389 0.0261527 0.387869 -3.34101 0.126023 0.223785 -0.0783284
1850 1 0.12597 0.173142 0.0497717 0.726769 -3.34612 -0.467851 0.252054 0.288074
1933 1 0.150956 0.198722 0.0507677 0.23712 -3.33174 -0.37852 0.20838 -0.0217027
260 1 0.19833 0.173483 0.0255623 0.764201 -3.28443 0.609753 0.179125 -0.325224
335 1 0.173894 0.199201 0.0259249 0.487019 -3.30282 0.0352749 -0.0969541 -0.168835
1854 1 0.177069 0.174129 0.0501851 0.642625 -3.27853 -0.681933 -0.0229779 0.304288
1937 1 0.201174 0.198267 0.0489733 0.353975 -3.29788 0.029115 0.091293 0.170353
264 1 0.251105 0.174207 0.0249791 0.421307 -3.32775 -0.0990688 -0.298293 0.288851
339 1 0.227401 0.198862 0.0233167 1.40823 -3.30154 -0.56395 -0.094228 0.570676
1858 1 0.226216 0.173706 0.0495842 0.217137 -3.36364 -0.0268242 0.000486815 -0.0729613
1941 1 0.249879 0.199605 0.0510678 0.595433 -3.28421 0.445541 -0.203565 -0.442261
341 1 0.250975 0.197045 4.60255e-05 0.896474 -3.2869 -0.0265612 0.214471 -0.248067
268 1 0.300939 0.176217 0.0254552 0.790514 -3.33779 -0.0253398 -0.363602 -0.315348
343 1 0.274578 0.198095 0.0258425 0.397497 -3.30576 0.0554403 0.41127 -0.199455
1862 1 0.275305 0.175147 0.0506444 0.426418 -3.34116 0.00529572 -0.323461 -0.147424
1945 1 0.29998 0.199457 0.0496496 0.368005 -3.28332 -0.0450217 0.226446 0.280103
345 1 0.298036 0.199007 0.999024 0.915698 -3.3542 0.27672 0.189217 0.369895
272 1 0.350044 0.174122 0.0257111 0.571052 -3.35946 -0.266161 0.206881 -0.133828
347 1 0.325174 0.20135 0.0254121 0.685855 -3.3368 -0.117295 -0.460234 -0.191059
349 1 0.348578 0.198531 -0.000351718 0.707892 -3.32327 0.416814 0.112012 0.200673
1866 1 0.324523 0.1756 0.0503153 0.620474 -3.31747 0.576643 -0.256369 0.0398509
1949 1 0.34988 0.200281 0.0503898 0.246837 -3.3329 0.129459 -0.0449271 -0.0675232
276 1 0.401105 0.174636 0.0244105 0.386178 -3.36575 -0.101586 0.294685 0.176078
351 1 0.3738 0.198603 0.0253432 0.702372 -3.36355 0.271149 0.226547 -0.0990303
1870 1 0.37595 0.176035 0.0505938 0.365535 -3.32836 0.156701 -0.150585 0.0540606
1953 1 0.400466 0.200995 0.0498148 0.237368 -3.36292 -0.146891 -0.438449 0.0913614
280 1 0.451404 0.171654 0.0232527 2.37988 -3.25834 -0.208636 0.847811 0.453951
355 1 0.426573 0.200488 0.0241754 0.570342 -3.37669 -0.0808063 -0.207837 0.0850827
1874 1 0.427206 0.175544 0.0486695 0.517518 -3.35365 -0.535074 -0.0998666 -0.0441877
1957 1 0.451514 0.200158 0.0494851 0.561955 -3.31482 -0.041093 0.143815 -0.248965
1878 1 0.476978 0.176763 0.0489101 1.10488 -3.33195 -0.255331 -0.551498 0.158103
284 1 0.498257 0.177023 0.0227736 1.78221 -3.27863 0.492489 -0.270796 0.290999
359 1 0.473927 0.201621 0.0239378 0.875966 -3.36957 0.0287391 -0.225087 -0.0682931
363 1 0.525438 0.200871 0.0261003 0.966029 -3.32594 -0.312115 -0.101655 -0.154167
1882 1 0.523386 0.174909 0.0477136 1.18484 -3.3473 0.0784761 0.058492 0.222133
1961 1 0.499725 0.200877 0.050932 0.606499 -3.34862 -0.067079 0.361602 -0.307177
278 1 0.474551 0.174331 -0.000451591 0.49253 -3.31153 0.146183 0.47807 -0.438482
282 1 0.525576 0.174482 0.999475 0.234481 -3.32169 -0.167242 -0.0363859 -0.115147
288 1 0.550286 0.172355 0.0242596 1.03888 -3.32159 -0.000168826 0.427999 -0.0480593
367 1 0.574585 0.197818 0.0252595 0.383618 -3.3107 0.0485095 0.0255886 -0.157692
1886 1 0.574878 0.174804 0.0492836 0.423608 -3.25756 -0.18984 -0.0119107 -0.0743451