ITEM: TIMESTEP
12000
ITEM: NUMBER OF ATOMS
32000
ITEM: BOX BOUNDS pp pp pp
4.7366728856688738e+00 7.6263327114331176e+01
-2.8504484237340364e+00 8.3850448423734051e+01
-3.2520349484444893e+00 8.4252034948443850e+01
ITEM: ATOMS id type xs ys zs c_csym c_peratom fx fy fz
8 1 0.0667369 0.0368114 0.0331979 0.995647 -3.29143 -0.120406 0.262174 0.169576
4 1 0.0279292 0.0441265 0.0403571 8.01182 -3.34357 -0.382119 -0.0436915 -0.0562477
3 1 0.0418459 0.0132464 0.032042 1.29997 -3.27981 -0.440827 -0.120937 -0.0299161
2 1 0.0382097 0.0375421 0.0102904 0.295965 -3.29565 0.20106 0.0401853 0.0594018
1 1 0.0143475 0.0114747 0.00917591 1.10792 -3.27388 -0.760412 0.125804 -0.0886058
12 1 0.105063 0.0313268 0.0244689 1.93564 -3.19583 -0.422284 -0.609153 1.46362
6 1 0.0754343 0.0293149 0.00406391 0.385382 -3.28832 -0.116957 -0.0278345 -0.105546
91 1 0.130503 0.058173 0.0272712 1.83384 -3.30312 -0.340499 -0.269558 -0.11646
89 1 0.102561 0.0523088 0.00505521 2.34267 -3.2047 -0.535955 1.31679 -0.81979
16 1 0.140785 0.0238702 0.0205169 0.343107 -3.29377 0.225625 0.0246284 -0.0368128
14 1 0.150301 0.0134705 0.99094 6.36711 -3.31307 0.205231 0.355881 -0.189679
1610 1 0.128948 0.0326114 0.050183 0.485666 -3.31915 -0.128173 0.218161 -0.335527
1693 1 0.154088 0.0605532 0.0510064 1.32428 -3.30056 0.276839 -0.274151 0.00231168
1614 1 0.165979 0.02552 0.0446494 0.214503 -3.31702 0.241447 -0.121767 -0.390728
95 1 0.16647 0.0492255 0.0200746 0.926617 -3.32461 -0.119013 -0.345262 0.353739
20 1 0.177969 0.0167314 0.0151121 6.97407 -3.33826 -0.102707 -0.00684577 -0.135273
99 1 0.203318 0.0422756 0.0132538 7.25707 -3.28455 -0.477989 -0.0292337 0.135715
1697 1 0.192082 0.052126 0.0451426 0.678517 -3.33204 -0.19406 -0.175147 -0.379057
18 1 0.203181 0.0160993 0.991154 0.391937 -3.27574 0.208888 0.109637 0.147629
24 1 0.226112 0.0174952 0.0154448 3.24536 -3.26374 0.927426 -0.0257754 -0.173091
101 1 0.230743 0.0436309 0.991728 0.825352 -3.31806 0.0166406 -0.422496 -0.180539
103 1 0.255463 0.0441763 0.0163528 0.706673 -3.24081 0.0813057 -0.13309 -0.355239
22 1 0.257944 0.0198261 0.995731 2.2252 -3.3523 0.098303 -0.0948411 -0.597366
28 1 0.288462 0.0220665 0.0151778 1.03882 -3.27486 -0.632356 -0.328062 -0.00821828
32 1 0.344363 0.0221351 0.01754 0.651157 -3.31518 -0.159282 0.286396 -0.061053
109 1 0.340079 0.0461951 0.995077 0.672381 -3.35857 0.319618 0.0864224 -0.247082
105 1 0.283743 0.0435517 0.993138 0.641394 -3.2986 0.094755 0.0985049 -0.0115944
25 1 0.289401 0.995767 0.991664 1.26426 -3.33815 -0.0271603 0.279484 0.613142
1625 1 0.288143 0.999698 0.0368821 1.75296 -3.31157 -0.323836 -0.336518 0.653283
26 1 0.317012 0.0220029 0.994651 0.86896 -3.321 -0.300161 -0.23939 -0.483781
29 1 0.347968 1.00004 0.995047 1.4142 -3.32132 -0.492281 -0.434721 -0.541537
30 1 0.37125 0.0245538 0.993963 1.50237 -3.27339 -0.333544 -0.0978693 -0.0439716
36 1 0.396019 0.0245 0.0179026 1.91587 -3.30105 0.39422 -0.140501 -0.320702
111 1 0.371048 0.0482352 0.0184277 2.20467 -3.31404 -0.413851 -0.40378 -0.586953
31 1 0.371821 0.999135 0.0184615 0.52303 -3.26504 0.284143 0.0261124 -0.0338497
33 1 0.397011 1.0012 0.994164 7.38686 -3.2824 0.49384 -0.129381 -0.0871681
40 1 0.455124 0.023141 0.014302 0.930674 -3.30931 -0.367284 -0.0964743 0.0778026
115 1 0.427006 0.0455537 0.0136395 0.722969 -3.32811 -0.114129 0.326223 0.176668
1634 1 0.425909 0.0245119 0.0377171 0.258631 -3.33026 0.336322 -0.0703011 0.151092
1717 1 0.453852 0.0489892 0.0365374 2.65357 -3.34267 -0.00629601 -0.252747 0.0423492
34 1 0.426361 0.0218361 0.990865 0.782402 -3.26592 0.550672 -0.675642 0.128829
117 1 0.45197 0.0442448 0.987599 1.58123 -3.27481 0.0652279 -0.00096495 0.486066
44 1 0.508476 0.0219299 0.0118562 6.19367 -3.19538 -0.551738 0.0465567 0.724651
119 1 0.480497 0.0464951 0.0105826 5.96353 -3.24099 -0.19226 -0.287394 0.668933
1638 1 0.483729 0.0269022 0.0368004 7.69327 -3.34601 0.17466 -0.265677 -0.179897
38 1 0.479582 0.0196962 0.990712 0.954398 -3.24504 -0.468855 0.326171 -0.263935
48 1 0.552949 0.0298551 0.0152421 9.4271 -3.21571 0.449895 -0.167577 0.147656
47 1 0.570508 0.00207253 0.0266673 8.31221 -3.26614 -0.186212 0.19029 -0.0939902
52 1 0.58975 0.0310361 0.0261842 7.14017 -3.32585 0.0180884 -0.4377 -0.256085
51 1 0.616412 0.00567637 0.026616 5.78802 -3.3066 0.205779 0.250698 0.217624
131 1 0.613568 0.0563415 0.0217831 8.09999 -3.19977 0.263488 -0.912435 -0.0289563
50 1 0.618191 0.0268913 -0.000451173 8.35469 -3.31851 -0.342003 0.0314155 -0.116245
49 1 0.595523 0.00154455 1.00186 9.71704 -3.19323 0.17946 0.0413919 -0.341479
53 1 0.645365 0.000458408 -0.000390899 2.59664 -3.21098 -0.152805 0.727264 0.187397
56 1 0.642408 0.031444 0.0239901 1.53186 -3.24643 -0.359879 -0.579086 0.543258
60 1 0.697047 0.0322532 0.0249844 0.499026 -3.30966 0.454413 -0.107432 -0.280974
1737 1 0.699487 0.0575907 0.0461933 1.84547 -3.29172 -0.721857 0.0728251 0.329861
55 1 0.670025 0.00527413 0.0236049 1.24999 -3.33492 0.328162 0.14214 0.297314
64 1 0.751726 0.0375676 0.0267325 0.756795 -3.31569 0.042414 -0.753347 0.0344215
58 1 0.72619 0.0324259 0.00169878 0.637749 -3.36163 -0.223736 0.24017 0.00552072
59 1 0.726192 0.0105242 0.0267429 0.538415 -3.33041 -0.0971367 0.166579 -0.299494
1658 1 0.723717 0.0344885 0.0507877 0.959382 -3.28808 0.407311 -0.00743229 -0.505179
1741 1 0.748946 0.0600377 0.0489568 0.849047 -3.27367 -0.15456 0.510564 0.0224991
63 1 0.77826 0.0122429 0.0288532 0.320764 -3.3168 -0.129415 -0.000147144 0.302572
68 1 0.804791 0.0375109 0.0307519 0.307289 -3.28106 -0.39447 -0.126419 -0.280263
145 1 0.807672 0.063836 0.0072983 2.23542 -3.30018 0.34482 -0.629888 -0.206874
65 1 0.808043 0.0105305 0.0104243 1.46824 -3.30978 0.0787154 0.184645 -0.672705
72 1 0.860935 0.0369066 0.0352017 0.957754 -3.29333 -0.429308 -0.0901617 -0.139486
70 1 0.885902 0.0356298 0.0125185 1.804 -3.29422 0.449568 0.649001 0.0185134
66 1 0.834209 0.0362065 0.0101491 0.356133 -3.33591 -0.0183043 0.519682 -0.0990988
147 1 0.83061 0.0597821 0.0335524 1.9365 -3.25115 0.78635 0.80706 -0.949222
67 1 0.832347 0.0126026 0.03384 0.608092 -3.25695 0.388908 -0.411262 -0.151403
1666 1 0.829466 0.0380116 0.0531968 1.29565 -3.17999 0.098011 -0.310342 0.913496
149 1 0.860595 0.061709 0.0104842 0.41157 -3.34446 0.0542726 -0.445513 0.0241597
76 1 0.91359 0.0384943 0.0364836 0.482508 -3.33024 0.281833 0.160489 -0.255519
75 1 0.945514 0.0168035 0.0363693 1.04338 -3.32423 0.0888409 -0.0568955 0.268507
73 1 0.916453 0.0164667 0.0147152 0.707304 -3.31963 0.244299 -0.120084 -0.167763
155 1 0.94152 0.0630436 0.0369883 0.289761 -3.32464 0.0895962 0.0298683 -0.0441491
74 1 0.946215 0.0405428 0.0150366 0.819216 -3.32216 -0.363979 0.111355 -0.0919875
80 1 0.972549 0.0415407 0.0400025 1.23877 -3.30874 -0.381813 0.0853689 -0.354201
79 1 -0.00197829 0.0187085 0.0391109 7.58096 -3.36049 0.381248 -0.184121 -0.115583
78 1 0.00122396 0.0456801 0.0158986 6.70862 -3.30349 -0.221713 -0.564019 0.475729
77 1 0.974303 0.0172081 0.0123444 8.32214 -3.3193 0.328084 0.136649 0.557851
83 1 0.0517561 0.0695372 0.0407444 6.57839 -3.2914 0.406442 -0.305158 0.54428
88 1 0.0779974 0.093802 0.0448522 7.83986 -3.31247 0.479979 0.0267944 -0.424183
81 1 0.0265514 0.0695671 0.0184208 8.05555 -3.29648 -0.229488 -0.045162 -0.384479
85 1 0.0626093 0.063487 0.0106414 1.05622 -3.28133 0.389389 -0.335243 -0.319058
84 1 0.0247743 0.0919877 0.041893 0.330992 -3.35438 -0.223269 0.265561 -0.0834205
82 1 0.0543149 0.0940402 0.0188994 7.76347 -3.28998 -0.485747 0.0217782 -0.0193391
87 1 0.08907 0.0620649 0.0326218 1.68199 -3.32235 0.581753 0.330296 0.61438
92 1 0.117016 0.0899611 0.038566 1.62971 -3.33943 -0.423719 -0.153885 -0.500673
86 1 0.0896444 0.0872344 0.0116765 0.928034 -3.28406 0.0836735 0.131375 -0.0246333
96 1 0.154367 0.0843226 0.0302465 2.10769 -3.23625 -0.470601 -0.151396 -0.175078
1694 1 0.179991 0.0873629 0.0539386 3.52755 -3.26569 -0.488348 -0.913347 -0.148582
90 1 0.124955 0.0811861 0.00685069 1.50944 -3.28062 0.189227 0.137841 -0.200256
100 1 0.189435 0.0740721 0.0212948 0.956387 -3.29668 0.217663 0.40451 0.16062
179 1 0.215944 0.100385 0.0192212 1.01368 -3.32946 -0.00288394 0.286039 0.424547
1777 1 0.204684 0.108295 0.0507917 1.01944 -3.25808 0.296708 0.422833 0.114037
1698 1 0.216355 0.0779315 0.0438454 1.14548 -3.32135 -0.0203187 -0.0956462 0.147646
98 1 0.200003 0.066542 0.991118 7.61974 -3.33165 0.232779 0.0374458 0.166399
104 1 0.226869 0.0674479 0.0144047 7.43299 -3.25254 -0.262747 -0.0061759 -0.048786
102 1 0.254511 0.068316 0.992786 0.620461 -3.2643 0.238443 -0.467024 -0.416349
183 1 0.250856 0.0903128 0.0139595 7.75113 -3.2172 0.704257 0.645381 0.81039
1781 1 0.242168 0.102088 0.0448907 0.669719 -3.27901 -0.261391 -0.345664 -0.0871895
1785 1 0.278577 0.0943635 0.0393418 8.15087 -3.34081 0.305427 -0.746598 0.186543
107 1 0.312651 0.0459949 0.0176296 0.516219 -3.25286 0.0606763 0.0637571 -0.5492
108 1 0.281011 0.0667005 0.0160507 0.625198 -3.32834 0.342472 0.554507 0.0919892
112 1 0.340405 0.0694944 0.0181698 0.901442 -3.23168 -0.505939 0.0707406 -1.01382
187 1 0.308964 0.0894401 0.0159791 1.74961 -3.3448 -0.122023 0.555985 0.178604
1706 1 0.310514 0.0685127 0.039101 0.778444 -3.30432 -0.439841 0.243616 0.464756
1789 1 0.336708 0.0921329 0.040273 0.550498 -3.33099 -0.192847 0.486226 0.140705
113 1 0.400437 0.0433552 0.990518 3.76063 -3.25334 -0.578254 0.717908 0.31099
116 1 0.398339 0.0692399 0.0154258 0.866871 -3.326 -0.184598 -0.0321722 0.043933
1710 1 0.366057 0.0715483 0.0390346 0.909361 -3.24823 0.782091 0.0307756 0.801783
1793 1 0.396392 0.0948311 0.0365474 3.50741 -3.3007 -0.346571 -0.489365 0.483923
120 1 0.45563 0.0708576 0.0131694 6.98751 -3.30445 -0.743829 -0.187871 -0.0638829
195 1 0.425117 0.0935061 0.0129769 2.84251 -3.26112 -0.0601897 -0.268934 0.456246
1714 1 0.424701 0.0723774 0.0388107 1.35224 -3.30609 0.0726953 0.020088 -0.516821
123 1 0.524938 0.0507973 0.0144544 6.30865 -3.13442 0.448436 0.444406 -0.267565
124 1 0.499402 0.0737724 0.0111986 6.26531 -3.23345 0.258019 0.716571 0.774743
1718 1 0.472992 0.0769973 0.0398803 6.56838 -3.26521 -0.153786 -0.00736781 0.0216441
127 1 0.578519 0.0569656 0.0093526 6.30278 -3.25611 -0.134978 -0.424068 -0.0330628
128 1 0.548534 0.0767022 0.00884514 1.69689 -3.31589 -0.0396896 -0.0447892 0.224823
1726 1 0.576641 0.0806533 0.0333451 5.76289 -3.3421 -0.0694579 0.0169146 -0.0224261
126 1 0.575648 0.0772075 0.98485 0.865582 -3.27928 -0.138271 0.519712 -0.206077
125 1 0.548841 0.053292 0.986185 5.21391 -3.32075 -0.621587 -0.418085 0.198594
132 1 0.60227 0.0816261 0.00843877 7.15951 -3.2917 0.331624 0.441362 0.0239739
1730 1 0.612745 0.0795787 0.0446555 6.93436 -3.20345 0.18494 -0.353739 0.47348
1809 1 0.601899 0.105684 0.0338467 6.91608 -3.2412 -0.501926 0.468654 -0.338299
135 1 0.668607 0.0537533 0.0252042 1.53792 -3.25281 0.354784 0.744078 -0.242199
136 1 0.641908 0.0766617 0.021979 7.93272 -3.26936 0.189009 0.100343 0.0990437
140 1 0.695452 0.0812933 0.0227106 0.374981 -3.30293 -0.204951 0.0682132 -0.27835
215 1 0.666128 0.1057 0.0223691 5.96721 -3.25236 -0.0427594 -0.758749 0.0465775
1733 1 0.639256 0.0565589 0.0465902 1.81511 -3.32822 0.120509 -0.28025 0.237192
1734 1 0.669874 0.0819519 0.0459305 1.57119 -3.34184 -0.539792 -0.41868 0.0325126
1817 1 0.694143 0.10717 0.0436659 1.28942 -3.26136 -0.343752 0.0689037 0.616791
139 1 0.726203 0.0601659 0.0242102 1.58911 -3.24275 -0.552484 -0.411002 -0.16209
144 1 0.749441 0.0858001 0.0230338 1.25302 -3.27396 0.393738 -0.306722 0.737944
219 1 0.720613 0.109376 0.0227309 1.64594 -3.31397 0.260309 -0.311485 -0.362441
1738 1 0.721142 0.0836799 0.045869 0.507437 -3.30895 0.222959 0.342352 0.284585
1821 1 0.748912 0.10973 0.0453626 0.954759 -3.32614 -0.241436 -0.147892 0.464217
143 1 0.777782 0.0617269 0.0263381 0.488551 -3.33797 0.105643 0.207285 0.497239
148 1 0.807289 0.0858865 0.0302834 1.0443 -3.30105 -0.399668 -0.0671699 -0.519082
223 1 0.778066 0.108553 0.02527 0.260574 -3.31126 -0.0473107 -0.190819 0.205497
1742 1 0.775814 0.0866742 0.0486914 0.359643 -3.34687 -0.183162 -0.00714426 -0.141778
151 1 0.885693 0.0608107 0.0344625 0.510034 -3.31295 0.232691 0.237087 -0.0603537
152 1 0.861162 0.0853441 0.0332972 0.668119 -3.33652 -0.42259 0.164937 -0.281193
150 1 0.8876 0.0866264 0.00877135 1.36216 -3.29305 -0.24966 0.0899044 0.832461
227 1 0.832148 0.110026 0.0322101 0.879982 -3.2971 0.640813 -0.0737409 -0.781471
1746 1 0.832264 0.0854145 0.0540123 1.08932 -3.31291 0.259379 0.556268 -0.0402954
156 1 0.912586 0.0861475 0.0374551 1.43452 -3.24036 0.0872838 0.0125007 -1.20755
154 1 0.941515 0.087706 0.0139915 0.249304 -3.3323 0.10123 -0.0312883 0.246291
153 1 0.914232 0.0632849 0.0129535 0.389254 -3.38773 0.0478393 -0.244193 0.047492
159 1 0.997786 0.06784 0.0400502 0.456764 -3.31271 0.339638 -0.373044 0.133418
160 1 0.96928 0.0880962 0.0375661 0.515909 -3.29309 -0.460296 0.576603 0.0569889
158 1 0.998924 0.0915364 0.0161138 0.266327 -3.32932 -0.286234 -0.106513 0.0534663
157 1 0.971532 0.0659886 0.0163271 0.378821 -3.32562 -0.0709651 0.0100891 -0.548297
165 1 0.0805073 0.118516 0.0220843 6.5923 -3.22927 -0.469506 -0.347226 0.255087
163 1 0.0509533 0.117133 0.0417607 0.719227 -3.33262 -0.368543 0.207155 0.309764
168 1 0.0795404 0.142075 0.0467485 0.531546 -3.3292 -0.302249 0.129839 0.268575
162 1 0.0524373 0.143611 0.0219876 1.21388 -3.32893 0.0165749 -0.443288 -0.349096
164 1 0.0222118 0.142892 0.0405918 2.09499 -3.28852 0.163976 -0.849274 0.0422422
161 1 0.0233623 0.117025 0.0179729 0.584202 -3.2777 0.295248 -0.181249 0.556872
167 1 0.105423 0.11957 0.0475161 6.80207 -3.30803 0.246682 -0.359069 -0.030261
172 1 0.107732 0.141828 0.0240805 5.79297 -3.17311 0.151257 0.212641 0.890414
166 1 0.0821225 0.141026 0.0018346 2.76289 -3.23204 -0.238558 0.330368 -0.304253
169 1 0.114386 0.11421 0.0122303 1.5179 -3.29084 0.697046 -0.544619 -0.406961
175 1 0.177744 0.107339 0.0254217 2.28086 -3.25573 0.499434 0.316306 0.308344
171 1 0.143842 0.114729 0.0379573 1.51415 -3.30253 -0.583014 0.0420165 -0.428472
176 1 0.167369 0.142214 0.0346828 6.27307 -3.28557 -0.838206 -0.136542 -0.180317
170 1 0.139431 0.140516 0.0092347 5.90969 -3.28389 0.0318537 -0.00820992 -0.0605234
180 1 0.201555 0.133276 0.0293702 0.819875 -3.3084 0.368669 -0.308529 -0.292472
1778 1 0.227977 0.1327 0.0543248 0.92423 -3.28864 -0.0967762 0.128575 -0.136058
184 1 0.240165 0.127804 0.0235961 2.40066 -3.28885 -0.432451 -0.322079 -0.503788
263 1 0.267163 0.150835 0.0245006 2.07127 -3.29805 -0.251996 -0.123906 -0.481902
1782 1 0.264432 0.126108 0.0462513 1.2042 -3.25392 0.746223 0.103654 0.402848
188 1 0.278441 0.114493 0.0169953 6.98083 -3.27596 -0.203681 0.381232 -0.344811
1865 1 0.292024 0.148582 0.0480684 1.13823 -3.27091 0.166772 0.37144 -0.661615
1786 1 0.307153 0.11671 0.0387069 7.40221 -3.2592 -0.263866 -0.357872 0.289992
192 1 0.335129 0.115954 0.017505 0.351546 -3.30635 0.162094 0.0220377 -0.00491622
267 1 0.303194 0.137919 0.0171158 7.51649 -3.32585 0.331228 0.834441 -0.292812
1869 1 0.33247 0.141116 0.0403523 7.55172 -3.32284 -0.150207 0.0786107 -0.358993
191 1 0.365518 0.093052 0.0163179 0.297807 -3.30139 0.144207 0.0391917 0.0518374
196 1 0.393461 0.1171 0.0161651 1.39709 -3.24825 -0.403095 0.0856544 -0.536035
271 1 0.362662 0.139817 0.0152864 0.9146 -3.29435 -0.16123 0.0361926 0.246823
1790 1 0.364054 0.117195 0.0396191 0.818757 -3.3192 -0.497676 -0.0581197 -0.395452
1873 1 0.386501 0.143905 0.0400046 0.46916 -3.26866 -0.451527 0.179057 -0.131218
1797 1 0.446368 0.100028 0.0386648 1.3268 -3.30171 -0.574548 -0.28758 0.216238
200 1 0.443007 0.121456 0.0140884 1.06745 -3.28039 0.293425 0.232093 0.356749
1794 1 0.415546 0.121268 0.0398243 0.981569 -3.24315 0.257238 0.158129 0.196804
197 1 0.450492 0.0930167 0.989176 6.06115 -3.23381 -0.00636985 -0.0802797 0.375918
275 1 0.412946 0.143897 0.0169573 2.37391 -3.20999 0.175053 -0.195132 -0.329736
1877 1 0.439561 0.146999 0.0396081 1.23246 -3.29424 0.266984 0.0388157 -0.268492
203 1 0.52441 0.101097 0.00932356 1.28703 -3.25227 -1.08649 -0.771419 0.44807
201 1 0.493655 0.100133 0.984989 4.98991 -3.30979 -0.226566 -0.584127 0.277589
199 1 0.473236 0.098411 0.0132122 1.5636 -3.30472 0.051911 0.39012 0.21813
1801 1 0.500274 0.0990457 0.0362288 1.78994 -3.25552 -0.5517 0.380016 -0.163336
204 1 0.495323 0.124867 0.00838601 1.12746 -3.30541 -0.178137 -0.318214 0.424146
1802 1 0.519885 0.126317 0.0336043 0.518325 -3.3276 -0.0709475 -0.0201404 0.0174355
202 1 0.519806 0.121666 0.98442 1.49582 -3.23274 -0.00702285 0.600966 0.0320061
1798 1 0.469837 0.124012 0.0372446 0.497763 -3.2742 0.161847 0.137173 -0.546806
207 1 0.572519 0.102872 0.00916658 0.973902 -3.30071 0.441728 -0.0866923 -0.191123
1805 1 0.551243 0.104754 0.0340079 1.55555 -3.16597 -0.663386 -0.205888 -0.0740958
208 1 0.54474 0.124784 0.00789106 1.41683 -3.24099 0.648486 0.917449 0.288616
1806 1 0.574236 0.128554 0.032391 0.420102 -3.26135 0.0563724 0.0190484 0.120381
211 1 0.631428 0.103513 0.0106698 7.62769 -3.29254 -0.331464 0.204235 -0.72686
212 1 0.600576 0.125451 0.00803282 1.23712 -3.30241 -0.0934566 0.387722 -0.0810242
1889 1 0.597488 0.152746 0.0312898 0.686442 -3.28194 0.477589 0.130946 0.16562
1810 1 0.626791 0.129123 0.0290715 3.73363 -3.30659 0.496592 0.642938 0.54058
216 1 0.656384 0.130454 0.00596253 5.92507 -3.2814 -0.424526 0.0903156 0.054738
220 1 0.690343 0.129947 0.0192863 6.66706 -3.21286 0.244061 -0.341441 0.737821
1893 1 0.653841 0.155551 0.0309436 6.12758 -3.2633 0.00380988 -0.610117 -0.038712
1814 1 0.662347 0.128275 0.0450604 6.47279 -3.34485 0.0495573 0.031017 0.225633
1813 1 0.636975 0.103101 0.0449983 6.5056 -3.3012 0.545205 -0.118211 0.357364
295 1 0.679994 0.155984 0.00774376 6.89186 -3.26808 0.166842 0.615409 -0.363137
224 1 0.750382 0.133313 0.0226765 1.88143 -3.29564 -0.662834 -0.264365 0.305477
1818 1 0.720469 0.131325 0.0463887 0.646172 -3.31243 -0.295121 0.300137 -0.324216
301 1 0.746874 0.153347 0.998996 6.75234 -3.33884 -0.08574 -0.2126 -0.184742
1901 1 0.747344 0.156134 0.0483284 0.847312 -3.25423 -0.23799 0.0305795 -0.315988
228 1 0.803741 0.131753 0.0284065 0.533144 -3.31785 0.0655366 0.402186 -0.146909
303 1 0.775586 0.1571 0.0236808 1.45137 -3.31277 0.08803 -0.146494 0.428797
1822 1 0.774055 0.134047 0.048749 0.868584 -3.31906 0.427445 -0.429746 -0.0135294
1825 1 0.804586 0.109301 0.0512795 0.426084 -3.27585 -0.492736 0.562209 0.344296
1905 1 0.802059 0.157046 0.048844 0.707167 -3.34614 -0.0486413 0.107817 0.156304
231 1 0.887356 0.109543 0.0346215 1.46263 -3.28106 -0.294385 0.136005 -0.505275
229 1 0.862309 0.111735 0.0109366 2.52402 -3.30563 -0.452064 -0.738737 -0.350937
232 1 0.860508 0.135725 0.0302372 1.23908 -3.31422 -0.00206195 -0.149976 0.398238
309 1 0.859259 0.15899 0.00768623 1.1061 -3.34549 0.0481414 -0.0670989 -0.234848
311 1 0.887562 0.158879 0.0326723 1.60805 -3.30771 -0.720914 0.269901 -0.205176
1826 1 0.831619 0.135232 0.0529916 0.540633 -3.29158 -0.323701 -0.14019 -0.183985
235 1 0.939055 0.110719 0.0363702 0.416793 -3.39365 -0.0141528 0.125275 -0.0916414
236 1 0.910835 0.134503 0.0336703 0.823958 -3.28864 0.278716 0.0107396 -0.0397099
233 1 0.912397 0.112988 0.0096434 1.91671 -3.26397 0.0668459 -0.35471 0.525871
315 1 0.937708 0.16084 0.0371845 0.79634 -3.30289 0.227751 -0.191575 -0.276942
234 1 0.939603 0.13572 0.0139138 0.638525 -3.33562 0.488737 -0.0652614 -0.318939
239 1 0.996259 0.114723 0.0407631 0.695749 -3.34437 -0.0429262 -0.0133131 -0.0722384
240 1 0.966159 0.135491 0.0389639 0.616657 -3.34831 0.10681 0.268326 -0.120447
238 1 0.994578 0.137174 0.0159342 1.15119 -3.30224 -0.0991753 0.485527 0.295438
237 1 0.969928 0.113123 0.0158474 0.515346 -3.33253 -0.182757 -0.105122 -0.181529
243 1 0.0504763 0.165283 0.0445198 0.610371 -3.28019 0.480196 -0.0387778 0.239927
248 1 0.0565407 0.191122 0.0250611 0.921743 -3.31275 -0.116208 -0.196957 0.120444
244 1 0.0228072 0.185546 0.0407241 3.01549 -3.26829 -0.389891 0.429408 0.00808103
245 1 0.0602523 0.168398 0.0014378 2.15502 -3.25377 -0.609558 -0.362069 0.159357
242 1 0.0334012 0.192718 6.29588e-05 7.86736 -3.24743 -0.366741 0.0960882 0.684137
247 1 0.0822454 0.165783 0.0265452 0.809174 -3.28567 -0.00763706 0.359274 -0.0890425
249 1 0.112953 0.167126 0.00703831 1.52382 -3.19617 0.366105 0.0782462 -0.0618371
252 1 0.109936 0.191628 0.0281603 1.19472 -3.25184 0.668795 0.0110152 0.511889
1846 1 0.079515 0.191732 0.0521272 1.63983 -3.27292 0.292846 -0.762081 -0.00759771
246 1 0.0862312 0.192894 0.00563754 0.975347 -3.28054 0.0104765 -0.205127 -0.657337
251 1 0.135821 0.168359 0.0309406 0.830228 -3.27681 0.503243 -0.31369 0.0273719
256 1 0.162121 0.193949 0.0363561 3.82309 -3.2766 0.658485 -0.348729 -0.137201
253 1 0.165647 0.164362 0.00838609 7.25728 -3.27738 -0.629286 -0.0114495 0.0747682
250 1 0.144098 0.19275 0.00977026 6.9556 -3.33323 -0.414441 -0.292492 -0.13344
259 1 0.226272 0.157933 0.0296269 0.927615 -3.28254 0.369673 0.0247873 -0.83017
255 1 0.19006 0.168459 0.0349782 7.31718 -3.23218 -0.34161 -0.473841 -0.0840051
260 1 0.214576 0.190602 0.0352369 7.43638 -3.20626 0.679895 -0.17006 -0.423448
257 1 0.20126 0.155592 0.00464053 0.748415 -3.30855 0.400194 -0.0239912 -0.153625
254 1 0.188987 0.18837 0.0109043 5.3601 -3.31579 0.168671 0.0925582 -0.491422
258 1 0.227908 0.180913 0.000999553 1.24526 -3.32813 -0.160557 -0.70461 0.605767
264 1 0.255244 0.181704 0.0271079 0.747319 -3.29677 -0.766595 -0.67034 -0.381743
268 1 0.292489 0.173872 0.0210183 0.878489 -3.28083 0.111333 -0.393021 0.369729
1866 1 0.318226 0.172907 0.0470511 0.596798 -3.33998 -0.165454 0.0323055 -0.416401
272 1 0.331008 0.162652 0.0146055 7.83964 -3.31628 0.00598519 0.451638 0.342766
1949 1 0.341315 0.198677 0.0469413 0.975141 -3.32066 0.065543 0.0367267 -0.304934
347 1 0.317178 0.196954 0.0200545 0.590996 -3.26675 0.313946 0.339015 0.381163
276 1 0.383954 0.165443 0.013239 1.34665 -3.28086 0.228617 0.555637 0.322009
351 1 0.354315 0.19053 0.0169261 6.99934 -3.25302 -0.348638 -0.147023 -0.872285
1870 1 0.356054 0.166094 0.0385871 7.71797 -3.33993 0.234958 0.147368 0.188247
1953 1 0.379905 0.193839 0.0367322 7.12532 -3.25978 0.603339 -0.395273 0.631636
280 1 0.436654 0.166718 0.0111451 1.63816 -3.22595 -0.151507 0.194865 0.00137683
355 1 0.409838 0.189984 0.0110843 2.71063 -3.34272 -0.355234 0.141124 0.0556242
359 1 0.457416 0.192616 0.0103172 2.09273 -3.32423 0.201329 0.595318 0.117057
1874 1 0.410547 0.168612 0.037891 0.43244 -3.32457 -0.11772 0.474567 0.0446492
1878 1 0.463188 0.170581 0.0337397 1.16903 -3.31107 0.0484012 0.27164 0.589637
1957 1 0.432951 0.194915 0.0369361 0.952235 -3.28457 -0.130993 -0.386215 -0.0383768
279 1 0.466349 0.146177 0.00997544 0.508481 -3.26521 -0.0817212 -0.264095 0.139576
283 1 0.518517 0.149931 0.00752913 0.929725 -3.29302 0.00755628 -0.23173 0.554638
284 1 0.487685 0.172148 0.00858745 1.07734 -3.25245 0.629243 0.0284712 0.278661
1881 1 0.492745 0.150254 0.0327451 0.896961 -3.26357 -0.147715 -0.680584 0.331319
1882 1 0.51395 0.174494 0.0332737 0.980093 -3.26319 0.721268 0.24764 0.0960698
1961 1 0.486763 0.197771 0.0337366 0.860286 -3.32476 0.0730428 -0.191465 0.41659
287 1 0.571753 0.15013 0.00960246 0.288488 -3.32748 -0.24181 0.121663 -0.317248
288 1 0.542183 0.175596 0.00986548 0.859595 -3.27099 0.62628 -0.534817 0.516166
1885 1 0.54405 0.151017 0.0329759 0.244714 -3.36677 0.0837256 0.11288 0.0560104
1886 1 0.569323 0.176477 0.0337768 0.417962 -3.34248 0.0866607 -0.129668 -0.0219481
291 1 0.628422 0.152882 0.00732458 1.02671 -3.33226 -0.468665 -0.302621 0.0826479
292 1 0.598217 0.174215 0.0074273 1.38864 -3.3481 -0.0370602 0.506252 0.477894
290 1 0.625395 0.176486 0.98503 0.33015 -3.33444 -0.0488757 -0.0114925 0.0636528
296 1 0.650934 0.178009 0.0096866 1.21838 -3.2509 0.18867 0.204828 -0.695956
300 1 0.708039 0.181662 0.00680156 6.8641 -3.23609 -0.00980748 -0.680368 0.211189
1894 1 0.680346 0.180567 0.0293201 2.77567 -3.27101 0.576093 -0.300086 0.68445
1977 1 0.708727 0.20349 0.0347898 7.36917 -3.35518 -0.407279 0.267928 -0.281158
299 1 0.716298 0.153841 0.0218636 6.53208 -3.36105 0.122109 -0.276634 0.0572787
304 1 0.743776 0.176459 0.0235236 6.00411 -3.27855 0.112182 -0.172271 0.144984
1898 1 0.716279 0.175255 0.0465024 6.74418 -3.27665 -0.231935 0.0289435 0.0788123
379 1 0.734459 0.201711 0.00907888 3.59056 -3.21952 0.380032 0.810362 0.00627801
1981 1 0.74181 0.199152 0.0495346 7.19202 -3.24102 0.40291 0.540587 -0.301754
383 1 0.770124 0.200994 0.0257452 3.2936 -3.33981 -0.0462716 -0.0114575 -0.355378
308 1 0.805405 0.181593 0.0264446 3.21449 -3.32057 -0.561907 -0.263907 0.371064
1902 1 0.773127 0.179606 0.0486137 0.63886 -3.32187 0.234142 0.0431377 -0.0952471
307 1 0.831965 0.156024 0.0286799 1.15215 -3.31894 -0.481671 0.404679 0.00185386
312 1 0.853032 0.183584 0.0288368 2.08848 -3.33031 0.405304 0.194699 -0.190878
391 1 0.880565 0.208698 0.0311254 1.9757 -3.24924 0.401351 -0.754924 -0.630582
1909 1 0.857193 0.159411 0.0547376 0.589958 -3.3303 0.405423 0.153924 -0.28652
1910 1 0.882377 0.185489 0.0532994 1.24306 -3.30753 -0.424271 -0.457804 0.107779
316 1 0.912065 0.184901 0.0343207 0.858582 -3.29314 0.108039 -0.0448748 -0.249505
313 1 0.915341 0.15958 0.0113921 0.929028 -3.28549 -0.351727 -0.0751142 -0.0746365
319 1 0.995699 0.163026 0.0392821 1.10485 -3.271 -0.532314 -0.197266 -0.202604
320 1 0.966823 0.183458 0.0364791 1.22272 -3.19351 -0.224522 0.397988 -0.113352
1918 1 0.98907 0.185764 0.0603271 1.88538 -3.29248 0.745423 0.235351 0.523762
317 1 0.966115 0.159668 0.0161246 1.34821 -3.33647 0.333869 -0.173551 -0.387752
318 1 0.993209 0.186406 0.0140855 6.54164 -3.30005 0.451946 -0.36862 -0.14923
323 1 0.0294589 0.213939 0.0266419 7.41486 -3.29091 -0.471452 0.0573365 -0.758704
328 1 0.0545101 0.238999 0.0265198 0.594026 -3.3186 0.636542 -0.0338662 -0.0634848
324 1 -0.00205199 0.238501 0.0232331 6.91061 -3.30524 0.491826 -0.0115242 -0.0892723
1922 1 0.0273327 0.237576 0.0467342 6.20659 -3.24884 -0.840869 -0.148978 0.669075
1925 1 0.05531 0.213326 0.0487889 2.39487 -3.22687 -0.564421 0.623529 0.429089
325 1 0.0598186 0.216634 0.00364015 1.00452 -3.3 -0.499391 -0.323079 -0.264414
327 1 0.084648 0.213595 0.0293919 1.56586 -3.23302 -0.458577 0.728304 -0.40622
332 1 0.107882 0.238562 0.0323198 1.09624 -3.337 -0.0131723 0.525469 -0.261246
1926 1 0.0784928 0.239435 0.0546318 1.16795 -3.30282 -0.378741 -0.028688 -0.913738
329 1 0.113302 0.2172 0.0065604 1.3461 -3.28714 0.174383 -0.719165 0.47347
326 1 0.0846569 0.238417 0.00578477 0.659463 -3.29147 0.362183 0.201658 -0.0447347
1929 1 0.105086 0.216203 0.054711 0.753783 -3.30302 0.344955 -0.235149 0.203719
331 1 0.136355 0.217476 0.0329294 0.856671 -3.3419 0.208187 -0.310768 0.0640941
336 1 0.167059 0.242062 0.0351999 1.24927 -3.26926 -0.554978 -0.666714 -0.346816
330 1 0.142232 0.239301 0.0106812 0.625441 -3.28519 -0.200095 -0.225465 0.102573
333 1 0.170883 0.215895 0.011743 6.70124 -3.26537 -0.323613 0.434547 0.164982
335 1 0.194171 0.2156 0.0347044 1.85861 -3.24224 -0.00825474 0.44711 0.498803
334 1 0.19878 0.240364 0.0144122 7.09075 -3.34131 0.159911 0.022651 -0.297671
339 1 0.243338 0.210984 0.031172 2.83179 -3.25137 -0.619798 0.182404 0.164165
340 1 0.225952 0.242814 0.0372323 7.34825 -3.38796 -0.134824 -0.325043 0.0231324
338 1 0.241015 0.234108 0.00563271 1.50861 -3.32502 -0.181782 0.408032 0.178802
337 1 0.216036 0.211231 0.00846833 1.77416 -3.27543 -0.483897 -0.144824 -0.0136217
343 1 0.28025 0.204 0.0257225 0.432339 -3.23414 0.162048 0.487131 0.144861
344 1 0.264257 0.236114 0.030087 1.15122 -3.31698 0.560822 0.560124 0.627993
342 1 0.279025 0.228648 0.00197502 0.657724 -3.28414 -0.255901 -0.276289 0.256822
341 1 0.253703 0.202602 0.00109994 0.490156 -3.22049 0.213745 0.457525 0.462207
348 1 0.305262 0.229391 0.025955 0.685811 -3.29415 -0.407092 -0.0262254 0.204264
352 1 0.343157 0.224052 0.0185191 1.11902 -3.25666 -0.344232 -0.29102 0.580734
356 1 0.381122 0.216812 0.0141921 5.39669 -3.27115 -0.342016 -0.477976 -0.302524
431 1 0.366292 0.248011 0.0186322 0.556536 -3.28898 0.20795 0.493999 0.270143
1950 1 0.365734 0.225703 0.0442293 0.606878 -3.33508 0.271123 -0.0717068 0.0427434
2033 1 0.394045 0.250914 0.0428185 0.616462 -3.26147 -0.481945 -0.319746 0.569104
360 1 0.430517 0.217136 0.0108806 0.900057 -3.30211 0.0374143 -0.321272 0.436556
435 1 0.403707 0.241824 0.0153525 7.23727 -3.23052 0.361582 0.199519 -0.82041
2037 1 0.430923 0.243896 0.0363641 6.45268 -3.30251 0.311253 -0.0986262 0.209151
439 1 0.45546 0.242515 0.0105762 1.69765 -3.27437 0.18903 -0.231809 0.599368
1954 1 0.405112 0.218512 0.0375794 6.75771 -3.30954 0.298995 -0.0115542 0.377246
1958 1 0.456953 0.218363 0.0354637 0.664153 -3.31726 0.368253 0.36591 -0.101159
363 1 0.514798 0.196641 0.0105916 0.35597 -3.31353 -0.157023 0.371165 0.0442258
364 1 0.484429 0.21925 0.0114721 0.494184 -3.32822 0.264401 0.0223573 0.216137
1962 1 0.51502 0.221899 0.03478 1.20813 -3.35126 -0.254508 -0.160188 0.239126
443 1 0.511355 0.2457 0.0146596 0.782091 -3.2978 0.196813 0.00376336 -0.545486
2041 1 0.484384 0.243458 0.0364337 0.787484 -3.26395 -0.359218 -0.18972 -0.186421
367 1 0.568651 0.199002 0.0115129 0.4479 -3.34338 0.34592 0.0512841 -0.0872541
368 1 0.541584 0.222406 0.0107357 0.935173 -3.3207 -0.172166 0.00140363 0.492333
1966 1 0.565776 0.224496 0.0367976 0.827007 -3.29511 -0.0249233 0.118053 -0.808787
2045 1 0.536347 0.249903 0.0376221 1.74965 -3.26197 0.23132 -0.512114 -0.0203022
1965 1 0.542022 0.199394 0.0358273 0.347941 -3.32659 -0.110521 -0.185 -0.0790743
371 1 0.624472 0.201821 0.0100709 0.613324 -3.31849 -0.404565 -0.282273 -0.351326
372 1 0.594264 0.224653 0.0114038 0.19213 -3.30679 -0.325666 -0.0747153 -0.0682953
1970 1 0.619816 0.226053 0.032855 0.922451 -3.26318 0.588584 -0.257838 0.511473
2049 1 0.592118 0.248829 0.0364726 0.208297 -3.3096 0.0489223 0.585898 -0.307747
1969 1 0.597113 0.199852 0.033717 0.753935 -3.32629 -0.421636 0.172694 -0.290981
1973 1 0.650666 0.201929 0.0315658 0.393706 -3.29389 0.136681 0.43516 0.361559
375 1 0.679401 0.201625 0.00793335 0.916277 -3.27655 -0.288005 0.831465 -0.0643073
376 1 0.650132 0.225998 0.011493 0.600426 -3.3142 0.224431 -0.014513 -0.296838
380 1 0.707654 0.22546 0.0104678 0.7753 -3.35461 -0.294108 0.142625 0.156407