ITEM: TIMESTEP
19000
ITEM: NUMBER OF ATOMS
32000
ITEM: BOX BOUNDS pp pp pp
7.5814829970361242e+00 7.3418517002963924e+01
-3.8335430736204259e+00 8.4833543073620305e+01
-5.7196742917773946e+00 8.6719674291776471e+01
ITEM: ATOMS id type xs ys zs c_csym c_peratom fx fy fz
4 1 0.00539992 0.0346015 0.0259439 5.21627 -3.27604 -0.0554898 -0.0535523 0.742102
8 1 0.045757 0.0282982 0.0265141 0.750516 -3.29712 -0.053325 -0.0544944 -0.139164
2 1 0.0190273 0.027002 0.999808 0.459331 -3.29197 0.360382 -0.0404668 -0.302228
6 1 0.0618755 0.0209887 0.998997 1.04929 -3.31164 -0.508208 0.0352668 -0.44958
3 1 0.0208131 0.00283599 0.0223184 1.45487 -3.35518 0.01615 0.293557 -0.117012
12 1 0.0872924 0.024284 0.0226715 0.759677 -3.23625 0.182217 -0.477491 -0.335354
89 1 0.0868391 0.0452782 0.998146 1.47461 -3.31657 0.0732602 0.491424 0.575028
7 1 0.0629923 0.997934 0.0199638 1.04105 -3.29841 -0.733473 -0.00390273 -0.00910362
16 1 0.130306 0.0146618 0.0186334 2.10873 -3.31703 0.117905 0.93163 -0.22491
1614 1 0.158251 0.0173357 0.0419897 2.12196 -3.30472 -0.682687 0.704463 0.0499266
95 1 0.154116 0.0420047 0.0200653 0.938998 -3.32033 0.679283 -0.222791 -0.33906
20 1 0.173001 0.0115524 0.0135448 0.656366 -3.23646 -0.267051 0.412107 0.422695
93 1 0.12986 0.0409939 0.996162 0.587232 -3.28022 0.230507 -0.447654 -0.142563
99 1 0.198856 0.0382489 0.0155597 0.32836 -3.34098 -0.11546 0.375202 0.140802
24 1 0.214469 0.00793209 0.0120412 7.41449 -3.32129 0.733037 -0.0271618 -0.24282
1618 1 0.198813 0.0170109 0.0382715 4.19358 -3.28324 0.204348 -0.0347819 0.180855
1701 1 0.226478 0.0454477 0.039786 3.64039 -3.27433 -0.167833 -0.738907 -0.345908
1622 1 0.240955 0.00928839 0.0382742 3.60426 -3.32693 0.265607 0.217348 -0.567712
103 1 0.243304 0.0343152 0.0131091 6.76205 -3.33354 -0.172013 -0.463263 0.179449
28 1 0.275752 0.0107188 0.0148508 0.694936 -3.27964 -0.766444 0.0580203 0.102908
1705 1 0.270373 0.035005 0.038881 3.35265 -3.33161 -0.616645 -0.291001 -0.02894
1626 1 0.30166 0.0125277 0.0399485 0.55911 -3.30843 0.463435 0.102273 0.210977
1709 1 0.298456 0.03539 0.0173725 1.4815 -3.23019 0.264787 0.788461 0.03722
1630 1 0.33158 0.0141255 0.0192261 1.46801 -3.32174 0.587996 0.464865 0.0650519
1713 1 0.360491 0.0429832 0.0213235 0.720083 -3.30355 -0.182337 -0.275868 -0.128549
36 1 0.365537 0.0204075 0.999203 0.920872 -3.30222 -0.302499 -0.333496 0.264706
111 1 0.332616 0.0404889 0.997512 0.89053 -3.32283 -0.332884 -0.162926 0.123766
115 1 0.392911 0.0442861 0.00186832 1.46718 -3.28785 -0.141513 -0.167562 -0.443744
1634 1 0.3929 0.0201564 0.0229102 0.563396 -3.33102 0.558088 0.373598 -0.116279
40 1 0.426458 0.0229289 0.00055861 1.4968 -3.32476 -0.570777 0.183602 0.505495
1717 1 0.421506 0.0464935 0.0238264 0.651957 -3.29548 -0.42757 -0.227624 0.400445
1638 1 0.451252 0.0249916 0.0271234 0.436312 -3.33276 0.304126 -0.0103606 -0.101647
44 1 0.481238 0.0276717 0.00663802 0.781884 -3.33183 0.361369 -0.0399711 0.0589982
119 1 0.449942 0.0503166 0.00362779 0.744362 -3.32279 0.421212 -0.23013 -0.245361
1721 1 0.477326 0.05142 0.027454 0.559102 -3.31574 0.011555 -0.0340816 0.198717
1641 1 0.485079 0.00473359 0.030084 7.3819 -3.2731 -0.163516 -0.167498 -0.163031
1642 1 0.509582 0.0294302 0.0309175 7.21162 -3.3186 0.728912 0.140669 -0.0600355
48 1 0.544189 0.02901 0.0120478 1.71458 -3.30597 -0.0918313 0.858675 0.400883
1645 1 0.545749 0.00682447 0.0347863 7.02942 -3.25531 -0.374337 0.982992 -0.380248
43 1 0.515961 0.005256 0.00929444 0.76847 -3.29661 -0.099641 0.194894 0.265397
52 1 0.603948 0.0362652 0.015952 0.608101 -3.20893 0.5229 -0.123401 -0.127058
47 1 0.578113 0.010579 0.0147789 0.491909 -3.27676 -0.315525 -0.281736 0.110347
1646 1 0.575057 0.0327872 0.0339517 3.09137 -3.24179 -1.018 -0.16287 1.21412
1649 1 0.605264 0.0116879 0.0399967 1.1746 -3.36258 -0.251959 0.0414548 -0.347871
1650 1 0.630568 0.037919 0.0398591 0.575131 -3.37315 -0.132203 -0.359885 0.31827
51 1 0.634979 0.0140249 0.0187985 0.349434 -3.35676 0.413843 0.030375 0.242114
56 1 0.663053 0.0411925 0.0203558 0.774691 -3.24634 -0.425127 -0.483116 -0.111554
1653 1 0.663778 0.0162053 0.0430746 0.464012 -3.3636 -0.602128 0.132053 0.0314582
53 1 0.668825 0.0172443 0.999239 0.451265 -3.33603 0.0106845 -0.339961 0.211408
55 1 0.693476 0.020108 0.0229624 0.796984 -3.33465 0.321983 -0.364536 0.32206
54 1 0.697436 0.0433139 0.000310993 1.98124 -3.2318 -0.737395 -0.441504 0.321147
60 1 0.721616 0.0440262 0.0268222 0.840114 -3.38229 -0.249356 0.393859 -0.0216455
57 1 0.724415 0.0208409 0.00349636 1.32226 -3.33136 0.512511 -0.107076 -0.168853
59 1 0.752341 0.0217377 0.0277555 1.22318 -3.32564 0.622463 0.432062 -0.00433736
58 1 0.752844 0.0457597 0.00684649 0.442998 -3.31167 -0.171035 0.106427 -0.00853451
64 1 0.779747 0.048407 0.0308717 0.703849 -3.31147 0.214392 -0.0402943 -0.233588
61 1 0.787699 0.0272135 0.00875225 1.08513 -3.35667 -0.309916 -0.463566 -0.0550705
63 1 0.815819 0.0280049 0.030166 0.613871 -3.29471 -0.0860476 0.0820676 0.223217
1582 1 0.819339 0.00499302 0.0106977 0.347783 -3.29388 0.106772 0.0319092 -0.445863
65 1 0.849011 0.0326557 0.011919 1.00668 -3.28823 -0.60451 -0.0365152 0.457622
67 1 0.875397 0.0330918 0.0358744 6.3023 -3.28019 -0.303819 -0.0687331 0.328999
1588 1 0.847804 0.00728535 0.0330638 7.24838 -3.3445 0.0991301 -0.083298 0.0602369
1586 1 0.880665 0.00905873 0.0156237 7.42135 -3.30147 -0.303515 0.0488835 -0.0508291
69 1 0.905961 0.0344886 0.0188013 6.26835 -3.22997 0.623691 0.6285 -0.55448
1590 1 0.924077 0.00664756 0.0235635 6.7807 -3.19809 -0.383697 -0.405703 0.298862
30471 1 0.937723 0.0407718 0.997686 8.53154 -3.27612 -0.0147192 -0.439766 0.653635
73 1 0.950706 0.0307049 0.0249303 3.71975 -3.25362 -0.0153711 0.156702 -0.0281374
78 1 0.979897 0.0361254 0.00187181 7.33986 -3.28234 -0.703814 -0.638154 0.0678742
79 1 0.979381 0.0102564 0.0227202 5.25468 -3.23534 0.150635 0.237503 0.250219
77 1 0.950876 0.00783953 0.998134 2.76409 -3.34473 -0.00517841 0.116864 0.0903009
1 1 0.991543 0.00403698 0.995253 2.14283 -3.27789 0.160731 -0.565069 0.104533
85 1 0.0445751 0.051124 0.00534514 2.60576 -3.30422 0.660987 -0.135221 -0.568516
83 1 0.0331367 0.059258 0.0327209 5.13754 -3.27354 -0.521808 -0.118932 -0.102851
81 1 0.0063052 0.0587687 0.00621403 7.08536 -3.26487 0.0514015 0.500492 -0.218661
82 1 0.0368003 0.0834632 0.00990481 7.53435 -3.33013 -0.217705 0.416632 0.441686
88 1 0.0612954 0.0820866 0.0346336 4.00131 -3.19014 -0.619146 0.598021 0.0957974
91 1 0.114275 0.046857 0.0238393 0.484476 -3.31113 -0.0588653 0.38133 -0.146507
87 1 0.0736658 0.0538053 0.0277361 0.464302 -3.26944 0.143607 -0.282634 -0.117984
92 1 0.0998071 0.0790024 0.0323059 1.32637 -3.1987 0.962386 -0.329959 -0.158226
86 1 0.078898 0.0753187 0.00651451 3.21867 -3.27984 -0.770481 0.00279333 -0.332744
90 1 0.118142 0.0685254 0.000529112 2.22932 -3.25097 -0.692193 0.663194 0.393156
96 1 0.142883 0.0716389 0.0273632 0.944762 -3.28438 -0.493241 0.309166 -0.0298779
100 1 0.181742 0.0679501 0.0201686 1.36238 -3.33891 0.621333 0.189956 0.192609
94 1 0.157498 0.0674099 0.995766 1.67295 -3.21666 0.274849 -0.872212 0.243417
177 1 0.179915 0.093064 0.997413 4.45697 -3.25761 1.13442 0.368082 0.437646
104 1 0.22486 0.0660293 0.0168283 0.521361 -3.29693 -0.0143476 -0.0042027 -0.0929306
179 1 0.211817 0.0958871 0.0203424 2.79775 -3.30982 -0.810119 0.185616 0.0319793
183 1 0.251839 0.0933606 0.0181978 0.790859 -3.25968 0.303884 -0.592375 -0.178265
1706 1 0.266789 0.0599252 0.0144041 7.31065 -3.29072 0.270825 0.363593 0.262659
1712 1 0.291643 0.0615008 0.0389076 8.44079 -3.29292 0.315634 -0.155952 -0.359012
1789 1 0.295103 0.088052 0.0127883 7.94016 -3.2972 0.162123 -0.809558 0.54635
1710 1 0.32612 0.0621015 0.0205753 2.25288 -3.27087 -0.300652 -0.159631 -0.589988
1793 1 0.350313 0.0858296 0.0188538 2.96547 -3.26209 0.570518 0.301967 0.367199
116 1 0.358956 0.0643665 0.996464 1.36328 -3.30799 -0.0906274 0.17422 0.249662
1791 1 0.320794 0.0849389 0.0402743 3.67214 -3.31899 -0.131983 0.233791 -0.0208947
1716 1 0.356511 0.0643066 0.0438529 1.39368 -3.29383 0.139926 0.354053 -0.312876
191 1 0.328826 0.0872403 0.994338 1.87713 -3.25454 -0.743429 -0.00486252 -0.0142943
195 1 0.38389 0.0902687 0.998583 0.661768 -3.35905 0.0248939 0.20238 -0.0065319
1714 1 0.38712 0.0679448 0.0218963 0.496337 -3.3119 -0.403083 0.112948 0.126178
120 1 0.416614 0.0689425 0.00144034 0.861185 -3.27868 0.291254 0.513069 -0.210426
1797 1 0.413572 0.0936527 0.0241658 1.04901 -3.32595 -0.469517 0.230134 -0.367487
1795 1 0.381168 0.0926209 0.0448812 1.67484 -3.30547 -0.0450931 -0.678616 -0.285371
1718 1 0.443619 0.073371 0.0250238 1.14093 -3.29449 0.551333 -0.22533 0.122195
199 1 0.445894 0.0956893 0.00175005 1.18176 -3.31149 -0.0269665 -0.482192 0.611277
124 1 0.47873 0.0753998 0.00607111 0.473587 -3.36297 -0.34444 -0.094138 -0.232527
1801 1 0.471551 0.0969522 0.0291596 0.8083 -3.34511 0.0902472 0.219287 -0.062332
123 1 0.509544 0.0526533 0.00914267 0.349399 -3.32003 0.223257 0.0220107 0.0894644
1725 1 0.535661 0.0567666 0.0333006 2.1435 -3.30096 0.0497717 -0.784285 0.157926
1722 1 0.504088 0.0774143 0.0296915 1.05428 -3.29981 0.01225 -0.180289 0.296354
128 1 0.537654 0.0770836 0.0123933 0.596442 -3.29267 0.100413 0.267152 -0.53376
1726 1 0.564939 0.0803062 0.0368345 0.476294 -3.31348 -0.150712 0.386808 -0.0266355
127 1 0.57106 0.056037 0.0161315 1.56455 -3.28666 -0.632778 0.178753 -0.514238
132 1 0.595857 0.0803684 0.0166757 0.97167 -3.30344 0.37512 0.916511 0.13605
1729 1 0.596418 0.0600165 0.039407 1.01482 -3.15946 0.837296 -0.427782 -0.675331
1730 1 0.622704 0.0840529 0.0423252 0.680638 -3.28236 0.157969 0.446153 -0.622172
131 1 0.62867 0.0605636 0.0189128 0.3353 -3.35435 0.226189 0.3478 -0.325919
136 1 0.653605 0.0873088 0.0207402 0.476193 -3.3691 0.0790603 -0.090194 -0.258923
135 1 0.686052 0.0658055 0.0241774 0.788893 -3.31657 0.557694 0.371509 -0.318438
1733 1 0.653123 0.0641232 0.0428294 0.74837 -3.24177 0.579842 0.0572084 -0.00878324
1734 1 0.680056 0.0902035 0.044568 0.81911 -3.31191 0.338043 -0.434473 0.21574
134 1 0.6869 0.0886101 0.000613596 0.430274 -3.33001 -0.289192 0.345884 0.103599
140 1 0.712182 0.0909554 0.0248057 0.732324 -3.30522 0.00815882 0.0911141 -0.0465812
137 1 0.718568 0.0675378 0.00229876 0.946906 -3.30146 0.441311 0.452681 0.512446
139 1 0.748392 0.0706614 0.0271724 0.795042 -3.28928 -0.636834 -0.376758 0.643894
138 1 0.745376 0.0934498 0.00771599 1.26428 -3.33321 0.371619 0.0969943 -0.575949
62 1 0.811667 0.0524898 0.00989314 0.729861 -3.3417 0.488166 -0.12237 0.232043
144 1 0.7772 0.0975933 0.0308665 1.84357 -3.28491 -0.144036 -0.590943 -0.311697
141 1 0.778537 0.0709453 0.00983405 1.13041 -3.28415 0.610041 0.64792 -0.534495
143 1 0.808208 0.0745193 0.0326243 0.397793 -3.35027 -0.215923 -0.120818 -0.184562
142 1 0.806929 0.0988491 0.0116218 0.61889 -3.34287 -0.278659 -0.107848 -0.413579
68 1 0.841975 0.0562305 0.0329073 1.12945 -3.34536 -0.0610589 -0.448019 0.135586
66 1 0.875125 0.0582203 0.0162859 0.376062 -3.32497 -0.260767 0.102054 -0.186366
145 1 0.839834 0.0802368 0.0129869 1.05873 -3.28453 0.170139 -0.702121 0.0117118
148 1 0.836959 0.0998262 0.0352342 0.28769 -3.27761 -0.139471 0.00289189 0.218391
147 1 0.870059 0.0806522 0.0380862 0.585415 -3.32298 -0.197682 -0.138669 -0.36811
72 1 0.903747 0.058334 0.0384442 8.24735 -3.27089 0.182657 -0.511913 0.464826
70 1 0.93583 0.0599394 0.020945 6.87383 -3.30127 0.00496363 0.256966 0.00585429
149 1 0.905496 0.0819227 0.0210261 2.57272 -3.25454 -0.628437 0.232646 -0.690523
151 1 0.930497 0.0842986 0.0438252 6.00693 -3.24344 0.373955 -0.607234 -0.498936
74 1 0.977669 0.0575617 0.0274639 3.30467 -3.24134 -0.0032061 -0.284219 0.100692
153 1 0.962406 0.08789 0.0231709 6.1753 -3.25898 -0.228486 -0.377609 -0.258537
157 1 0.00493438 0.0816797 0.0316537 4.06145 -3.19096 0.448943 -0.412885 -0.222891
30555 1 0.994534 0.0905714 0.00531566 8.18447 -3.29491 0.21309 0.099762 -0.811896
158 1 0.0359451 0.106445 0.0353839 5.0213 -3.30736 0.0899605 -0.128185 -0.384772
30560 1 0.0244499 0.116805 0.00657698 7.01451 -3.2495 -0.546375 -0.717076 -0.616096
161 1 0.0588866 0.134174 0.0333382 3.19921 -3.15602 -0.198464 -0.832009 0.982557
30639 1 0.0502122 0.140384 0.00619189 8.12795 -3.19968 -0.356831 0.460949 -0.546804
237 1 0.0179809 0.136258 0.0267796 7.02182 -3.27294 -0.21965 0.478774 0.373072
165 1 0.0639288 0.112081 0.00901119 7.25952 -3.24635 0.385277 -0.606997 0.526468
167 1 0.0859044 0.109546 0.0387562 4.57844 -3.34841 -0.469703 -0.139171 -0.266454
166 1 0.0889193 0.137863 0.0154297 9.84287 -3.24612 0.960836 -0.490154 -0.43869
169 1 0.102511 0.0992236 0.0108257 3.03707 -3.25222 -0.362543 0.575134 -0.551444
172 1 0.111586 0.135073 0.0414254 4.9476 -3.27163 0.266679 -0.359522 -0.0406157
176 1 0.130801 0.12713 0.0153328 0.813925 -3.20235 -0.0889846 0.301712 0.14067
173 1 0.141364 0.093893 0.00633685 2.61501 -3.23786 0.0075828 0.365673 -0.0779696
171 1 0.126913 0.104264 0.0337898 0.761812 -3.28289 0.184447 -0.363533 0.606662
175 1 0.168251 0.0975883 0.0302432 1.21779 -3.28096 0.329974 -0.631306 0.328355
180 1 0.171919 0.120084 0.0132239 6.45605 -3.09364 0.565352 0.503585 -0.0955187
1774 1 0.154254 0.127631 0.0387108 0.758451 -3.24386 0.186964 -0.0728674 0.344094
184 1 0.206902 0.120075 0.995451 7.4776 -3.33884 0.300677 -0.326507 0.211832
1778 1 0.197111 0.121114 0.0352044 6.0399 -3.23583 0.412185 0.922482 -0.350202
1782 1 0.237941 0.123226 0.0229286 5.71285 -3.34392 -0.225646 -0.128785 -0.128456
263 1 0.232519 0.14469 0.997705 7.10853 -3.2915 0.320596 0.0702978 0.476694
1786 1 0.281194 0.115234 0.0187702 1.49262 -3.23014 -0.0367956 0.679641 0.509403
1869 1 0.307127 0.143032 0.0204954 0.784542 -3.29485 0.0246558 -0.0718146 0.299795
1790 1 0.323425 0.111566 0.0170383 6.13616 -3.23144 -0.715465 -0.657198 -0.159405
1873 1 0.346261 0.134778 0.0181584 7.01341 -3.27228 0.709108 0.882713 0.0637576
196 1 0.351127 0.114038 0.996128 1.18468 -3.23614 0.177136 -0.193004 -0.665296
1794 1 0.375263 0.111322 0.0194754 3.60453 -3.27132 0.65666 0.229261 0.210746
275 1 0.380401 0.13627 0.997853 0.632372 -3.34055 -0.133301 -0.0481625 -0.166346
200 1 0.413303 0.114484 0.998681 1.53258 -3.29577 -0.931554 0.0777899 0.78249
1877 1 0.403749 0.136345 0.0227362 1.99052 -3.33448 0.156534 0.232314 -0.131209
1798 1 0.438249 0.118289 0.0264145 0.852274 -3.31624 0.188204 -0.172014 0.0488948
279 1 0.440375 0.139346 0.00336348 0.678775 -3.25758 -0.631387 -0.336445 -0.393869
204 1 0.472545 0.11946 0.00807534 2.00615 -3.30227 0.150975 -0.199335 -0.672251
1881 1 0.465605 0.142752 0.0264447 1.08958 -3.25784 0.36053 0.118296 0.832113
1802 1 0.500696 0.12238 0.0296311 0.733726 -3.30014 -0.254344 -0.303963 0.285733
203 1 0.50692 0.0990554 0.00435535 4.25 -3.28766 -0.204298 0.148206 1.18259
1805 1 0.531183 0.0999914 0.0338048 0.555689 -3.30723 0.150755 0.200064 -0.0800374
208 1 0.533105 0.123683 0.0117978 1.04873 -3.33574 0.00683966 -0.0221025 -0.376154
1806 1 0.558511 0.124993 0.0368352 0.806789 -3.34267 0.14055 0.0580738 -0.284513
207 1 0.563461 0.102016 0.0148212 0.61006 -3.34944 0.362135 0.193543 -0.273666
1809 1 0.592355 0.105207 0.0379469 0.581943 -3.36665 -0.0453785 0.0652004 0.0916624
211 1 0.624492 0.109732 0.0177442 1.331 -3.33637 0.0847077 -0.374065 0.105917
212 1 0.590443 0.127515 0.0139958 0.721612 -3.32168 -0.236776 0.201183 0.522984
1810 1 0.618258 0.132271 0.0391921 0.860436 -3.33604 0.021102 -0.382176 0.122054
215 1 0.679659 0.113538 0.0223692 0.897906 -3.35674 0.0429597 -0.466452 -0.431136
1813 1 0.648455 0.109389 0.0434541 0.528234 -3.32592 -0.232196 0.190031 -0.107784
216 1 0.650267 0.135083 0.0175979 1.39139 -3.29445 0.0921376 -0.57325 0.241715
1814 1 0.675843 0.134771 0.0434578 0.403989 -3.28653 -0.04551 -0.0835167 0.354738
214 1 0.685032 0.136425 0.999341 1.18459 -3.29881 -0.535444 -0.282209 -0.281038
220 1 0.707851 0.137224 0.0254555 0.833023 -3.29497 0.790811 -0.0270704 -0.0363783
217 1 0.714017 0.115694 0.00335348 0.329252 -3.35614 0.249916 -0.33729 -0.122988
219 1 0.743138 0.117218 0.0274167 0.520689 -3.28416 -0.563729 0.265274 0.0520368
218 1 0.740879 0.141886 0.0061628 1.19435 -3.35464 0.065158 -0.165246 -0.211737
224 1 0.772002 0.141952 0.0287381 1.25808 -3.33606 -0.639585 0.0489002 0.536808
221 1 0.771802 0.119891 0.00747264 2.04639 -3.28631 0.574336 -0.62417 -0.00654388
223 1 0.806402 0.121445 0.0338849 2.17415 -3.28445 -0.752042 -0.162743 0.248141
222 1 0.803038 0.142877 0.0104094 1.20402 -3.29166 -0.0593516 0.294173 -0.0887825
146 1 0.867739 0.103205 0.0160302 0.314077 -3.29192 0.151236 0.0508799 0.204737
225 1 0.833961 0.122882 0.0135502 0.62323 -3.31233 0.655769 0.246397 -0.384545
227 1 0.863662 0.12496 0.0382169 0.169434 -3.29614 -0.23154 -0.101523 -0.0574795
226 1 0.862404 0.148245 0.0174196 0.752736 -3.34154 -0.271121 0.0722987 -0.611548
152 1 0.89815 0.104099 0.0414902 0.598244 -3.34927 -0.305414 0.41245 -0.0377087
150 1 0.928508 0.107198 0.021019 0.488 -3.36135 0.293814 0.445001 0.0114496
229 1 0.894216 0.12713 0.0190019 0.419256 -3.27614 0.343325 0.274077 0.155657
231 1 0.923119 0.131478 0.0429346 1.35895 -3.32573 0.0404719 -0.741296 -0.351394
156 1 0.958664 0.106657 0.0451639 8.5047 -3.31836 -0.0548232 0.592026 0.566
154 1 0.99175 0.111592 0.0270438 6.42673 -3.26235 0.242694 0.0194538 -0.357838
233 1 0.958096 0.131132 0.0248737 1.42028 -3.32214 -0.657532 -0.0691473 -0.545859
30556 1 0.961928 0.10995 0.000235943 0.868727 -3.30448 -0.751781 0.206933 0.41095
30635 1 0.987911 0.134201 0.00371943 0.474867 -3.30266 -0.0159411 0.369462 0.0517381
238 1 0.0429355 0.162489 0.0283642 6.82732 -3.36038 0.0362852 0.136765 -0.0352323
30640 1 0.0142894 0.15955 0.00479606 0.561358 -3.32371 0.264519 0.0226193 0.326291
30719 1 0.0414675 0.185984 0.00633834 0.789476 -3.26676 -0.402749 -0.565548 0.139928
241 1 0.0722263 0.18683 0.0322928 6.60097 -3.24188 -0.192845 -0.656012 -0.58073
162 1 0.0858665 0.157111 0.0387542 2.53438 -3.1729 -0.297234 0.548722 0.142143
30564 1 0.0758116 0.166672 0.00970249 6.8969 -3.28883 -0.0384697 -0.248353 -0.305259
245 1 0.10145 0.191584 0.00922618 7.65205 -3.2899 0.323514 -0.635343 0.130976
247 1 0.112005 0.182086 0.0421248 3.39843 -3.17599 -0.595994 -0.97051 0.404563
249 1 0.116043 0.161965 0.0189102 10.0927 -3.31647 0.363807 -0.0819099 -0.00823258
251 1 0.142003 0.157782 0.0454929 7.2706 -3.23033 -0.66314 0.687921 -0.744277
256 1 0.166103 0.18392 0.0467803 7.59449 -3.26756 0.0134468 0.105768 -0.455372
250 1 0.139858 0.187273 0.0222598 8.7414 -3.22 0.760833 -0.260279 -0.484614
255 1 0.159333 0.152196 0.0188376 0.837901 -3.20307 -0.555243 -0.170083 0.0428087
260 1 0.187275 0.179682 0.0209905 8.61096 -3.08144 -0.869211 0.136958 0.787059
1857 1 0.181152 0.151472 0.0417887 2.68615 -3.18889 0.469161 0.334184 -0.0627292
259 1 0.200607 0.14679 0.0163498 6.96005 -3.23548 -0.0366318 -0.335485 -0.144815
264 1 0.227603 0.171782 0.01562 7.65186 -3.06576 0.187965 -0.26265 -0.0279794
1861 1 0.227997 0.149488 0.0363009 5.50956 -3.16119 -0.432191 -0.235796 -0.258051
1858 1 0.208845 0.176942 0.0432672 7.91018 -3.11136 0.534889 0.344639 -0.451642
1865 1 0.266813 0.146976 0.0250482 1.96685 -3.28774 -0.242429 0.0742444 0.288729
268 1 0.264395 0.168313 0.00126264 2.05522 -3.33694 -0.00401767 -0.123206 0.0819054
1866 1 0.29315 0.173165 0.0265773 1.16068 -3.29934 0.34384 -0.753308 -0.0377591
1862 1 0.254067 0.17558 0.034609 2.28234 -3.21458 -0.212084 -0.0595659 0.466983
272 1 0.30649 0.16346 0.998295 0.435038 -3.29972 0.0876822 0.283994 -0.0885103
1870 1 0.337059 0.167764 0.0244928 1.63147 -3.27279 -0.616301 -0.28611 -0.482427
351 1 0.335312 0.189591 0.00151943 1.02509 -3.26423 -0.277384 -0.484222 -0.491182
355 1 0.374678 0.181152 0.997858 6.05505 -3.3049 0.289731 0.278013 -0.366731
1874 1 0.375639 0.161023 0.0208497 6.96863 -3.31709 0.171302 -0.547564 0.119157
280 1 0.407054 0.159562 0.999561 0.596944 -3.30666 -0.0166631 0.161228 -0.0448009
1957 1 0.402855 0.183887 0.0225978 5.65863 -3.35648 0.0175451 0.189113 -0.107559
359 1 0.432834 0.186947 0.999944 1.43158 -3.24967 0.0842831 -0.333109 0.616292
1878 1 0.431907 0.161622 0.0238193 1.2935 -3.28106 -0.0695463 0.345386 0.465317
283 1 0.499935 0.144785 0.00820338 0.353243 -3.32785 -0.114363 0.0378771 -0.0369887
284 1 0.462656 0.163888 0.00506179 1.84696 -3.27095 0.947012 0.65835 -0.429986
1961 1 0.461296 0.187596 0.026064 0.751665 -3.31448 -0.498847 0.119105 0.514805
1882 1 0.492511 0.168432 0.0287962 0.666118 -3.33585 0.214045 -0.404892 0.531152
363 1 0.493607 0.189651 0.0078766 0.508757 -3.31747 0.0112577 0.260664 -0.570623
1885 1 0.525869 0.147328 0.0326072 0.310241 -3.36724 0.29132 0.184335 -0.0637932
287 1 0.558182 0.149172 0.0104782 0.568484 -3.30921 -0.0487234 -0.123814 0.624647
288 1 0.527378 0.170015 0.0082021 0.564447 -3.31026 -0.371759 0.0823243 0.50101
1886 1 0.55368 0.172256 0.0322293 0.528044 -3.33431 -0.34421 -0.125984 0.417531
1889 1 0.584337 0.150179 0.0356954 0.719802 -3.33813 0.149458 0.22223 -0.00907321
291 1 0.618894 0.154105 0.0170054 0.538616 -3.35956 -0.46171 0.242156 -0.0733326
292 1 0.58332 0.174266 0.0122293 1.14925 -3.32199 0.768685 -0.0146475 0.431897
1890 1 0.61108 0.176449 0.0381718 0.465086 -3.35305 0.109478 -0.197693 0.0623461
1893 1 0.645677 0.155542 0.0424375 0.637273 -3.32011 0.0485082 0.222165 -0.480024
295 1 0.679014 0.157513 0.0204577 1.29064 -3.25142 -0.839756 0.470011 0.472906
296 1 0.644234 0.179983 0.0189489 0.659813 -3.30356 -0.0137682 -0.657863 0.0537943
294 1 0.67906 0.181807 0.00192824 1.73061 -3.26499 -0.398822 0.19675 -0.520336
1894 1 0.670529 0.180754 0.0424446 0.767448 -3.29567 0.0670633 0.261805 0.155845
299 1 0.736616 0.164299 0.0275204 0.414119 -3.31244 0.0793039 -0.886003 0.501287
300 1 0.705047 0.185478 0.0246523 1.00249 -3.26878 -0.448714 -0.0777368 0.421334
298 1 0.736634 0.184542 0.00766228 2.27657 -3.2133 0.441045 0.673434 -1.14568
297 1 0.708673 0.161942 0.00186765 0.87888 -3.21704 0.649094 -0.50598 0.051893
1897 1 0.700643 0.16118 0.0451079 1.70596 -3.30308 0.885041 -0.292201 0.286129
304 1 0.766235 0.188755 0.0303261 0.587524 -3.2801 -0.583142 0.077924 0.135876
303 1 0.795556 0.167497 0.0319527 0.789263 -3.28069 0.185969 -0.238996 0.573161
302 1 0.797166 0.190465 0.0114147 0.36309 -3.23977 -0.147345 0.343565 0.0165105
301 1 0.770361 0.166796 0.00813962 0.796412 -3.30529 -0.182144 -0.674548 -0.0466745
228 1 0.828206 0.147458 0.036039 1.38406 -3.33627 0.354665 -0.249589 -0.090274
308 1 0.826689 0.19083 0.0351945 1.11175 -3.32884 -0.37632 0.561447 -0.221615
305 1 0.825683 0.169472 0.0129309 1.9811 -3.24591 1.1132 -0.178856 0.236434
307 1 0.858523 0.170573 0.0367095 0.609725 -3.26829 -0.502296 0.0802281 0.164506
306 1 0.857844 0.195846 0.0156068 0.596572 -3.36764 -0.228554 0.0295506 -0.16631
232 1 0.88949 0.150255 0.0409124 0.306389 -3.27621 0.351582 -0.0475514 -0.285915
230 1 0.923071 0.152588 0.0199944 0.65103 -3.34955 -0.278011 -0.0914204 0.218794
309 1 0.890667 0.17282 0.0185172 0.70475 -3.32377 -0.0220794 0.0376945 -0.44346
311 1 0.918253 0.174579 0.0432602 0.289615 -3.30615 0.105702 0.167929 -0.22763
317 1 0.012319 0.18494 0.0284991 2.32303 -3.27099 -0.424258 -1.02417 -0.458886
236 1 0.950787 0.154438 0.0451834 0.264029 -3.25585 0.112496 -0.00226678 -0.281207
234 1 0.983019 0.15682 0.0252467 0.3157 -3.29577 0.317898 0.030152 -0.0294173
313 1 0.950902 0.176817 0.0221529 0.702969 -3.31525 -0.272037 0.459778 0.399405
30636 1 0.953581 0.155212 0.00168524 0.389939 -3.33845 0.140059 -0.203024 -0.436426
242 1 0.0676066 0.207871 0.0081906 0.739371 -3.19884 0.112995 0.758777 -0.220768
318 1 0.0400098 0.207142 0.0286551 1.38645 -3.21255 -0.601081 0.163477 0.207701
323 1 0.0623684 0.231793 0.0308603 0.600569 -3.327 0.229411 0.0276946 -0.472671
321 1 0.0334243 0.230488 0.0051523 0.494696 -3.3745 0.220301 -0.196363 0.276333
248 1 0.0965232 0.211039 0.0332873 7.35646 -3.27719 0.0425579 0.226552 -0.402513
246 1 0.128526 0.214747 0.0104193 5.70452 -3.26956 -0.111535 -0.18185 0.415207
325 1 0.0932648 0.232799 0.00771582 1.81497 -3.29545 0.0251587 0.311429 1.01458
327 1 0.124132 0.232559 0.0356088 6.09172 -3.30244 -0.24736 0.619777 -0.0958045
252 1 0.135614 0.203785 0.0451274 11.4711 -2.97451 0.102666 0.682509 0.955118
329 1 0.152467 0.239427 0.0144383 6.66419 -3.15498 0.274711 0.389072 -0.41589
331 1 0.161531 0.217885 0.031078 8.9692 -2.93928 -0.208771 -1.02266 0.130993
333 1 0.168614 0.204649 0.00536582 7.47824 -3.2354 -0.0905697 0.197336 0.274655
335 1 0.195992 0.20637 0.0407866 8.69317 -3.27714 -0.339029 0.11867 0.221644
339 1 0.209666 0.201039 0.0082563 6.88908 -3.23719 -0.0580649 0.297167 -0.124407
344 1 0.234424 0.225909 0.0112518 0.479767 -3.31776 0.0245917 0.368451 0.0294822
334 1 0.192296 0.229365 0.016748 6.22203 -3.28643 0.574337 0.391272 -0.48401
343 1 0.249438 0.196414 0.00751254 1.91256 -3.29552 0.628651 0.27312 -0.306794
1941 1 0.235069 0.204352 0.0356181 1.69686 -3.26789 0.339214 -0.645015 -0.0825671
347 1 0.292897 0.193125 0.00118944 1.03334 -3.34774 -0.256187 0.0927992 0.495952
348 1 0.276443 0.222382 0.00788475 0.32208 -3.39067 -0.0935318 -0.14027 0.0615434
1945 1 0.278031 0.200011 0.0311854 0.675159 -3.27356 -0.260337 0.533616 0.041054
1946 1 0.301429 0.225602 0.0333509 0.894935 -3.31264 0.353604 0.34331 -0.417805
1942 1 0.26118 0.229282 0.0390155 1.64205 -3.22641 0.371349 0.372644 -0.762547
1953 1 0.361573 0.193478 0.0249697 1.4026 -3.25118 0.282148 -0.676127 0.0902956
1949 1 0.320688 0.196181 0.027899 0.32001 -3.2664 -0.47344 0.214805 0.142366
352 1 0.320231 0.218686 0.00553397 0.509119 -3.34256 -0.443218 0.0719559 0.0522942
1950 1 0.34505 0.220731 0.0307969 0.276893 -3.29903 -0.0892824 0.274398 -0.203887
356 1 0.361466 0.214346 0.00173155 0.928376 -3.27073 -0.27149 -0.0114446 -0.0888574
1954 1 0.388418 0.215485 0.0266617 0.827543 -3.27356 -0.132852 0.480932 -0.158778
360 1 0.400413 0.206328 0.997859 6.6943 -3.33372 0.128834 0.151166 0.10354
439 1 0.427 0.231077 0.000885559 6.4349 -3.34197 -0.0417439 0.434383 -0.0488313
1958 1 0.428241 0.209353 0.0244207 6.04879 -3.31374 0.170546 -0.0847354 -0.0377198
435 1 0.385164 0.238258 0.00304559 0.465139 -3.3089 0.168921 0.00343436 0.123475
364 1 0.459181 0.209772 0.00467808 1.4809 -3.2881 0.418118 0.364724 -0.116657
2041 1 0.454934 0.236136 0.0238348 7.97647 -3.33701 0.162384 -0.239233 0.137065
1962 1 0.489062 0.215454 0.0285338 0.829215 -3.33472 -0.406209 -0.525541 0.0133778
443 1 0.486285 0.23478 0.00294372 2.46639 -3.28625 0.0712122 0.525206 0.640465
1965 1 0.520942 0.192822 0.0305017 0.560195 -3.33034 -0.118319 -0.0572551 0.210138
367 1 0.553092 0.196999 0.0112377 0.696944 -3.26779 -0.246178 -0.469442 -0.180263
368 1 0.520467 0.218208 0.00912938 1.68288 -3.33329 -0.0917409 -0.516851 -0.120708
1966 1 0.548379 0.216205 0.0325024 1.39725 -3.27328 -0.198911 0.97817 0.460836
1969 1 0.57979 0.196733 0.0362432 0.594202 -3.28172 0.448732 -0.182951 -0.284651
371 1 0.612996 0.199526 0.0159945 0.580273 -3.35871 -0.162583 -0.0125238 0.0764605
372 1 0.58167 0.220665 0.0148295 1.00383 -3.31527 -0.140988 0.102173 -0.156039
1970 1 0.609264 0.225713 0.0378336 3.24871 -3.22417 -0.433028 -0.810513 0.186641
1973 1 0.637581 0.200944 0.042244 0.90155 -3.32527 0.172559 0.401717 -0.337535
375 1 0.669209 0.203973 0.0223215 1.11395 -3.34196 0.382551 0.457969 -0.108791
376 1 0.636649 0.225607 0.0174582 1.26304 -3.27016 0.687389 -0.204797 0.129927
374 1 0.671965 0.225955 0.999819 0.839955 -3.35767 -0.241682 0.534485 0.039001
1974 1 0.666305 0.226999 0.0438007 0.328058 -3.34207 -0.160303 0.146547 -0.244022
379 1 0.732681 0.209358 0.0259116 0.750195 -3.31154 -0.267266 0.0801722 0.676296
380 1 0.69933 0.228288 0.0233922 0.907553 -3.36843 -0.247773 0.523297 0.295014
378 1 0.73233 0.234535 0.00569882 1.36464 -3.29672 0.093906 -0.595807 -0.391141
377 1 0.706347 0.206454 0.00105725 1.33758 -3.29201 -0.220624 0.195382 0.499621
384 1 0.760466 0.233624 0.0303772 0.321924 -3.3209 0.143245 0.348726 0.0927455
381 1 0.763583 0.212214 0.00845055 0.466845 -3.28588 0.126518 -0.148276 -0.320628
383 1 0.791047 0.21365 0.0317104 0.745966 -3.30211 0.538789 -0.100718 0.293243
382 1 0.792747 0.23654 0.00817239 1.50449 -3.30812 -0.212695 0.491973 0.715095
388 1 0.820575 0.237935 0.0335276 0.622296 -3.37988 0.0928519 0.138189 0.0842751
385 1 0.822628 0.215758 0.0126021 0.801488 -3.32782 0.803753 -0.0524986 0.168217
387 1 0.853638 0.218649 0.0363716 0.739876 -3.32921 -0.254812 -0.245828 -0.108431
392 1 0.87932 0.242588 0.0400786 0.783553 -3.35847 0.348782 -0.0411245 -0.188964
386 1 0.854707 0.242571 0.0122347 2.42542 -3.22448 -1.02377 -0.333916 0.865027
312 1 0.883852 0.194678 0.0388527 0.94443 -3.29271 0.393019 0.664314 0.225959
310 1 0.918529 0.195849 0.021563 2.9978 -3.29407 0.032528 0.697413 -0.122198
389 1 0.884573 0.221112 0.0163172 0.604343 -3.32856 0.0959194 0.012282 0.325104
391 1 0.91295 0.219972 0.0395424 2.11487 -3.32582 -0.408661 0.121072 0.550845
316 1 0.947449 0.200081 0.0471573 3.01402 -3.36772 -0.366516 -0.118677 -0.412943
30720 1 0.00781256 0.20566 0.00649453 0.814817 -3.28159 0.25713 -0.101065 -0.885859
393 1 0.941202 0.224451 0.0200262 1.87145 -3.27079 0.578876 -0.00411965 0.185697
314 1 0.978714 0.203866 0.0265945 1.18693 -3.25579 -0.983644 -0.562529 -0.290036
397 1 0.00472195 0.227141 0.0267585 1.22964 -3.2895 0.0461511 0.756178 0.156288
30795 1 0.976041 0.226746 0.0040502 1.43262 -3.33936 -0.0698521 -0.0563263 -0.585495
324 1 0.0294218 0.253231 0.0289121 0.425996 -3.34974 -0.324707 -0.204274 -0.316264
322 1 0.0619085 0.253883 0.00737783 0.591735 -3.28739 -0.447439 -0.00249061 0.728139
403 1 0.0547365 0.277976 0.0294901 0.558551 -3.32122 0.457817 -0.0270933 -0.245132
401 1 0.0285439 0.275539 0.00537765 0.763669 -3.28006 -0.409133 0.337815 0.409521
328 1 0.0910199 0.256585 0.0324717 0.808282 -3.31943 -0.0834155 -0.138533 -0.0445674
326 1 0.120674 0.258589 0.0134098 0.9874 -3.28089 -0.121419 0.0768782 -0.392045
405 1 0.0892901 0.279451 0.00927405 0.454532 -3.35788 -0.524558 0.33602 0.29617
407 1 0.116171 0.28356 0.0334967 1.03484 -3.28289 -0.324751 -0.640302 0.285783
336 1 0.17829 0.239603 0.0437187 8.16339 -3.16833 0.46314 0.0784331 0.239239
332 1 0.146029 0.259324 0.0365841 7.1851 -3.26936 -0.279019 0.541724 0.67217