ITEM: TIMESTEP
15000
ITEM: NUMBER OF ATOMS
32000
ITEM: BOX BOUNDS pp pp pp
5.9558772191119811e+00 7.5044122780888074e+01
-2.8012485770482343e+00 8.3801248577048511e+01
-4.6183504912419053e+00 8.5618350491241017e+01
ITEM: ATOMS id type xs ys zs c_csym c_peratom fx fy fz
4 1 0.00440169 0.037691 0.0321457 7.53062 -3.28117 0.394001 0.10313 0.313661
3 1 0.0199755 0.0092692 0.0250379 1.02782 -3.26835 0.100907 -0.347763 -0.101154
8 1 0.0473112 0.0313399 0.02627 1.01992 -3.28032 -0.380725 0.3676 -0.119635
1605 1 0.0464798 0.00860614 0.05059 0.390765 -3.27119 -0.43751 -0.170043 0.394692
12 1 0.086467 0.0263271 0.0219127 0.21218 -3.29946 -0.0494922 0.191315 -0.204016
7 1 0.0582101 -4.32486e-05 0.0235367 3.05569 -3.29144 0.233095 0.0954646 -0.885939
1609 1 0.0856189 0.00412921 0.0443671 1.41198 -3.26554 0.143575 -0.932643 0.283088
1610 1 0.112153 0.0261278 0.0456117 0.296263 -3.31461 0.543106 0.241627 0.0134312
16 1 0.126598 0.01969 0.0175569 0.418915 -3.25636 0.546921 0.18936 -0.0888576
1614 1 0.153898 0.0193326 0.0401065 0.872005 -3.32902 -0.369598 0.05934 0.51805
95 1 0.153394 0.044984 0.0189711 0.811618 -3.34397 0.151118 -0.122495 -0.0792757
20 1 0.168445 0.00984264 0.0140522 7.60987 -3.30581 -0.0222125 0.0947298 -0.620674
1697 1 0.179811 0.0437942 0.0421417 0.411376 -3.29295 -0.366436 0.133693 -0.32648
99 1 0.195555 0.035593 0.0121104 8.5577 -3.17972 -0.721394 -0.357445 0.30083
24 1 0.228487 0.011746 0.0148154 2.69951 -3.24667 -1.02922 -0.00428406 0.472945
1618 1 0.192849 0.0113721 0.0384291 8.01672 -3.28255 0.0261852 -0.263755 -0.392591
1701 1 0.217625 0.0346883 0.0368952 6.14222 -3.28832 0.435315 0.364348 0.163121
103 1 0.253091 0.0365265 0.0212101 2.81456 -3.2526 -0.58324 0.0893747 -0.633986
28 1 0.282638 0.0127774 0.0214787 0.446093 -3.2954 -0.108035 -0.0102014 -0.256941
1622 1 0.249472 0.0119476 0.0399488 1.13676 -3.24325 -0.0634357 -0.313133 0.215574
1705 1 0.277701 0.0379385 0.0430572 0.979958 -3.24269 0.537169 0.0313919 0.611291
1626 1 0.3084 0.0147587 0.0439687 1.33704 -3.32107 0.0656164 -0.176269 0.749131
1709 1 0.311314 0.038943 0.0242234 0.825147 -3.31623 -0.166111 -0.0318012 -0.0481463
111 1 0.339298 0.0403517 0.000887895 1.95242 -3.26764 0.629419 -0.108783 0.529708
1630 1 0.340354 0.0152202 0.026382 0.847572 -3.26766 0.0946377 0.0570291 -0.370417
1713 1 0.364133 0.0401415 0.0279955 1.23019 -3.32616 0.544969 0.266285 -0.190122
1711 1 0.336764 0.0399803 0.0483308 0.548288 -3.26386 -0.480101 0.387327 0.289041
36 1 0.371255 0.0171642 0.00469397 0.416754 -3.30898 0.00113218 0.0850054 0.623525
115 1 0.397093 0.0419469 0.00890183 1.15441 -3.30731 0.131996 -0.17366 -0.318418
1634 1 0.401789 0.0179559 0.0290796 2.13577 -3.27883 -0.467164 -0.522898 0.30643
40 1 0.429892 0.0183524 0.00642418 2.07954 -3.2754 -0.282529 0.251369 0.666568
1717 1 0.424609 0.0412025 0.0317755 0.760088 -3.30114 0.482796 0.878683 0.00333044
119 1 0.454441 0.0444762 0.00936621 0.672723 -3.32078 -0.172542 -0.112333 0.454487
1638 1 0.452953 0.0190355 0.0344308 0.98423 -3.3386 0.103554 -0.0018304 -0.376529
44 1 0.481246 0.0204641 0.0120524 1.14889 -3.35884 0.00289785 0.213094 -0.164913
1721 1 0.479543 0.047382 0.0362155 1.31637 -3.29918 0.147708 -0.417868 -0.438171
1642 1 0.508246 0.0240502 0.0362504 6.48308 -3.24183 0.552798 0.0355891 -0.303692
123 1 0.508868 0.0470919 0.014447 0.821551 -3.33644 0.0669262 -0.120134 -0.00195865
48 1 0.538844 0.0216088 0.0158686 1.04782 -3.29922 0.14012 0.765419 -0.134632
1645 1 0.538194 0.000959717 0.0386039 6.19722 -3.30186 -0.109244 0.0240785 0.175523
52 1 0.59533 0.0243553 0.0197821 0.968558 -3.28929 0.489481 0.176164 -0.169102
127 1 0.567356 0.0476544 0.0167898 0.791519 -3.27898 -0.565076 0.214927 -0.0048537
47 1 0.569007 1.00107 0.0176816 0.422777 -3.29965 0.104675 -0.0276266 -0.0968994
1646 1 0.567218 0.0248903 0.0412638 0.917966 -3.28533 -0.377382 0.00484589 -0.201049
1649 1 0.594875 0.00182133 0.0425669 0.649376 -3.30423 0.497375 0.035065 -0.149334
1650 1 0.621474 0.0261994 0.0427397 1.01815 -3.2932 -0.199919 0.41016 0.563605
51 1 0.631252 0.00306276 0.0248078 7.80938 -3.23796 -1.10797 -0.330389 -1.355
56 1 0.650967 0.0293762 0.0239136 0.734532 -3.28476 0.256808 0.22008 -0.212456
55 1 0.679452 0.00691464 0.0259981 1.25171 -3.37415 0.32009 0.105022 0.0660028
1653 1 0.651251 0.0022055 0.0484237 2.02783 -3.17633 0.564859 0.761315 0.0851453
1654 1 0.676749 0.029612 0.0498413 1.28355 -3.34283 0.275128 0.23615 -0.641216
60 1 0.707518 0.0351147 0.0269948 1.61707 -3.33833 0.224542 -0.916754 0.248817
57 1 0.71151 0.007892 0.00478477 0.485501 -3.24287 -0.129548 0.679304 0.176458
58 1 0.737705 0.033981 0.00583968 0.248458 -3.33921 -0.250699 -0.110697 0.203236
59 1 0.738302 0.0101312 0.0280177 0.294392 -3.30718 -0.0124643 0.453896 0.397002
64 1 0.76534 0.0336914 0.029146 1.188 -3.30214 -0.565726 0.58348 0.422543
61 1 0.767745 0.0111956 0.00719769 0.475393 -3.30764 0.125717 -0.031001 0.10082
63 1 0.795468 0.0148668 0.030964 1.58015 -3.2603 -0.352028 -0.651334 0.572562
62 1 0.794257 0.0374655 0.00804761 1.01538 -3.33754 0.295971 -0.162344 -0.0322056
68 1 0.821294 0.0375956 0.0334378 0.612065 -3.31072 -0.0470946 0.609278 0.0661918
65 1 0.824978 0.0121243 0.0135828 1.11459 -3.27531 0.0753927 0.373532 -0.383204
66 1 0.850613 0.039567 0.0136275 0.610527 -3.27971 0.240153 0.0224117 0.19875
67 1 0.853415 0.0157073 0.0368849 7.41344 -3.29613 0.239034 0.3295 -0.00670417
72 1 0.878962 0.0427655 0.0388149 7.52193 -3.3133 -0.148675 -0.370314 0.327331
69 1 0.883461 0.0185922 0.0169677 7.89356 -3.35635 0.120324 -0.239578 0.0647496
70 1 0.909706 0.0454998 0.019333 8.16258 -3.23672 0.329517 -0.595117 -0.0738019
76 1 0.91795 0.036314 0.0482908 11.1867 -3.29362 0.225089 0.426927 0.262392
73 1 0.924681 0.0144591 0.026067 7.32598 -3.30308 -0.0130591 -0.243281 -0.15704
71 1 0.894556 0.0105214 0.0491978 8.22492 -3.22294 -1.03845 0.0208442 -0.738503
30476 1 0.943395 0.0422193 0.998482 8.66047 -3.20686 0.111296 0.646294 0.478405
78 1 0.98378 0.0395925 0.00591311 8.10249 -3.24153 -0.445703 -0.217778 -0.331225
74 1 0.959066 0.0399559 0.0289318 7.59246 -3.27505 -0.478555 -0.562581 0.0750443
79 1 0.98214 0.0124636 0.0299484 6.22754 -3.26093 -0.316204 0.0551558 0.128452
77 1 0.956243 0.0122617 0.00431632 9.03289 -3.27863 0.328001 0.402089 0.0772132
83 1 0.0295634 0.0635463 0.0325398 7.99553 -3.35467 0.202186 -0.169825 0.281944
81 1 0.0114851 0.0670043 0.00421129 7.72992 -3.27014 -0.372364 0.12807 -0.315046
82 1 0.0382351 0.0929049 0.00432312 7.23839 -3.21317 -0.595756 -0.210512 0.287179
158 1 0.0150405 0.0934312 0.0286799 6.5644 -3.29004 0.0641469 0.0970589 -0.0429912
88 1 0.0581587 0.0886375 0.0357999 7.7049 -3.3275 -0.271923 0.0863147 -0.151647
87 1 0.0707196 0.0577818 0.0255895 1.75979 -3.27267 0.157688 -0.0244327 0.624774
92 1 0.096226 0.0818628 0.0317894 2.47686 -3.30798 0.351493 0.16576 -0.391347
86 1 0.0738832 0.0846076 0.00507945 1.62997 -3.21582 0.133284 -0.738187 0.156885
91 1 0.113781 0.050779 0.0221331 0.754854 -3.31685 -0.247794 0.0544373 0.441868
96 1 0.138421 0.0755416 0.0247149 0.21193 -3.32213 0.103042 -0.0351605 -0.204301
1693 1 0.139359 0.0520143 0.0480293 0.58037 -3.31623 -0.101009 -0.349635 -0.399675
1694 1 0.165476 0.0760034 0.0480181 0.534487 -3.2799 -0.0436509 0.0663823 -0.719916
100 1 0.179718 0.0698818 0.0154291 3.55253 -3.2274 -0.453516 -0.0510893 1.14348
1698 1 0.204072 0.0694209 0.0404475 1.86712 -3.27792 -0.0924993 0.177201 0.704542
104 1 0.216352 0.0596107 0.0141462 6.84537 -3.19058 1.23152 0.667748 -0.264408
183 1 0.243629 0.0861838 0.0144168 5.82461 -3.25962 0.289188 0.0371188 0.703672
1702 1 0.242634 0.0622742 0.0373002 6.10259 -3.33641 0.430841 0.0734819 -0.00413735
1781 1 0.234463 0.0966327 0.0431164 2.23088 -3.27379 -0.0857261 -0.364366 0.178075
1785 1 0.272443 0.0878957 0.0368643 6.58818 -3.31901 -0.431538 0.00541208 0.435383
1706 1 0.28059 0.0607066 0.0216588 1.83495 -3.28657 -0.117756 0.365046 0.00870984
1712 1 0.303918 0.0628871 0.0474252 3.11101 -3.33489 0.376157 0.15026 0.150781
1789 1 0.306915 0.0871318 0.0244251 2.7037 -3.2843 0.124689 0.230147 -0.329766
191 1 0.339065 0.0856213 0.0024151 1.52521 -3.27991 -0.262782 0.46785 0.411393
1710 1 0.334249 0.0649102 0.0259934 1.27575 -3.2861 0.581101 -0.305228 0.250599
1793 1 0.363458 0.0888096 0.0294679 0.51489 -3.33386 0.00105158 -0.0380722 -0.240157
1716 1 0.362922 0.0651299 0.0515655 0.4986 -3.29981 0.237474 -0.107838 -0.597206
116 1 0.367871 0.0628982 0.00658994 1.08461 -3.30589 -0.332684 0.324202 -0.269406
195 1 0.393415 0.0883663 0.00892123 0.862429 -3.29569 -0.27864 0.262425 -0.500717
1714 1 0.393521 0.0654361 0.030674 0.204697 -3.32436 -0.0627261 -0.145927 0.127775
120 1 0.423506 0.0662016 0.00808694 0.244306 -3.34122 0.125401 -0.142594 0.337941
1797 1 0.420272 0.0905428 0.0317309 0.230033 -3.30389 0.152332 0.0017154 -0.309784
1718 1 0.451399 0.0684046 0.0333532 0.576353 -3.36495 -0.484008 -0.159512 -0.101811
199 1 0.448564 0.0906723 0.00825149 0.607914 -3.3136 0.241078 0.0763784 0.332053
124 1 0.478227 0.0702899 0.00979834 0.828981 -3.28593 0.0260687 -0.00334401 0.624628
1801 1 0.475004 0.0944605 0.0339336 0.504017 -3.27283 0.879016 -0.412654 -0.394208
1725 1 0.538271 0.0466196 0.0373769 1.23208 -3.31076 -0.695052 0.225835 -0.0951185
1722 1 0.506306 0.0720872 0.0350129 0.477603 -3.3563 -0.107047 -0.397589 -0.140671
203 1 0.505041 0.0947201 0.0111032 0.390609 -3.35286 0.106489 0.22454 0.220427
128 1 0.537673 0.0713291 0.0133434 1.19911 -3.30512 -0.521658 0.0227892 0.0266059
1805 1 0.531031 0.0964911 0.0339679 0.826176 -3.25563 -0.126127 0.0382712 0.622833
1726 1 0.561613 0.0735106 0.0372244 0.36214 -3.29804 -0.00201358 -0.0129906 0.391844
207 1 0.560512 0.096637 0.0159747 0.797286 -3.27054 0.551237 0.086642 -0.705414
132 1 0.592362 0.0751125 0.0178385 0.574343 -3.30624 -0.324874 -0.293653 -0.150602
1809 1 0.587236 0.099512 0.040647 0.499496 -3.37293 0.340526 -0.0417669 -0.0428634
211 1 0.617867 0.0989703 0.0184293 0.844839 -3.30876 -0.0850794 0.233755 0.288699
1729 1 0.591633 0.0510849 0.0405998 0.40654 -3.28437 -0.263214 -0.175802 0.548287
1730 1 0.617894 0.0753533 0.042402 0.592346 -3.28389 -0.442082 0.433618 0.275916
131 1 0.619686 0.050929 0.0213378 0.662097 -3.30112 0.33294 -0.185815 -0.644764
136 1 0.646525 0.0743627 0.0227698 1.68964 -3.27903 0.429098 0.798324 -0.38948
135 1 0.677562 0.0548229 0.0251562 0.155504 -3.27638 -0.143933 0.203407 -0.0306652
215 1 0.674755 0.103634 0.0264799 2.83347 -3.30845 -0.571155 -0.32626 -0.637763
1733 1 0.648209 0.053365 0.0460578 0.548673 -3.31576 0.17623 -0.301533 -0.0562633
1734 1 0.673478 0.0790951 0.048253 0.570469 -3.26087 -0.120532 0.0671272 -0.509914
1813 1 0.640941 0.102469 0.0434995 1.51227 -3.34609 0.410302 -0.333696 0.0941941
140 1 0.703577 0.0815962 0.0282777 1.21246 -3.25641 -0.295125 -0.441335 -0.892645
137 1 0.706953 0.0553606 0.00395917 0.382401 -3.3271 0.260933 0.504171 -0.0733331
139 1 0.734606 0.0585582 0.0286608 0.494958 -3.29487 -0.261076 -0.435194 -0.186766
138 1 0.732067 0.082926 0.00663378 1.07382 -3.33396 -0.420228 -0.351513 -0.691648
1737 1 0.702435 0.0566231 0.049217 0.794529 -3.32156 0.470608 -0.0771624 0.0924594
144 1 0.758423 0.0843747 0.0271402 1.37148 -3.23211 0.282655 0.0519574 0.911415
141 1 0.763173 0.0590237 0.00751508 0.410438 -3.3106 -0.0316919 0.151904 -0.256939
143 1 0.788589 0.0598255 0.030028 1.22715 -3.34658 0.408766 0.276539 0.593732
142 1 0.789587 0.0852291 0.0107028 0.960101 -3.29165 0.142721 0.124769 -0.627745
145 1 0.821893 0.0631417 0.01144 0.377411 -3.30407 -0.481812 -0.377307 -0.00360989
148 1 0.815647 0.0871137 0.0325634 0.368269 -3.2695 0.286742 -0.528119 0.041884
147 1 0.847 0.0627605 0.0348527 0.618281 -3.31304 -0.170129 0.274169 0.407476
146 1 0.847887 0.0855542 0.0130919 0.86575 -3.28181 0.149674 0.617007 -0.0933919
149 1 0.87778 0.0642029 0.0155171 0.500472 -3.25678 0.109929 0.539442 0.063056
152 1 0.873062 0.0883798 0.036308 0.695421 -3.34433 0.0606942 0.142833 0.346643
151 1 0.903822 0.0682474 0.0405653 7.22069 -3.25376 -0.109669 -0.2025 -0.417312
150 1 0.903961 0.0911422 0.015054 1.57247 -3.29411 -0.0430796 -0.216148 0.493245
156 1 0.929333 0.0912528 0.0397855 1.58527 -3.29558 0.412867 -0.19606 0.241907
153 1 0.940332 0.0659858 0.0192878 6.26164 -3.24415 -0.556047 0.135678 4.20785e-05
155 1 0.957475 0.0660403 0.0464852 6.2745 -3.23452 -0.344418 0.387085 0.465984
154 1 0.962998 0.090374 0.0215063 1.43909 -3.26779 0.0073524 0.728807 0.240303
157 1 0.987149 0.0651844 0.028361 1.57073 -3.21725 0.35598 0.335266 -0.11547
30555 1 0.971253 0.0698587 0.999839 9.06961 -3.30281 -0.418783 -0.0796631 -0.475507
30560 1 0.994606 0.0965331 0.00317019 8.22321 -3.26581 0.026919 -0.325646 -0.621915
161 1 0.0438965 0.120344 0.0318945 9.62846 -3.27219 -0.132764 -0.157366 -0.707558
238 1 0.0146705 0.142682 0.0275534 0.573502 -3.2955 -0.139194 0.182911 0.217749
30564 1 0.0456008 0.148813 0.00865827 8.26464 -3.1564 0.458617 -0.808264 -0.233234
30639 1 0.0198326 0.121598 0.0058581 7.08306 -3.2664 0.484079 -0.379122 0.0285686
162 1 0.0723516 0.146368 0.0313096 7.94107 -3.16025 -0.600862 0.0481783 0.30302
165 1 0.0613446 0.118295 0.00509153 6.95796 -3.29639 0.504052 0.433092 0.241959
167 1 0.0855918 0.116083 0.0348747 6.99194 -3.3297 -0.374805 -0.563394 0.00273183
166 1 0.0915457 0.141865 0.00835785 6.91892 -3.18256 -0.139884 -0.200189 -0.761988
169 1 0.100919 0.106448 0.00555378 0.8207 -3.3035 0.272639 0.231779 0.200783
172 1 0.111782 0.139006 0.0361953 5.45591 -3.22959 -0.0529435 -0.133442 0.559696
171 1 0.125273 0.105925 0.0309736 0.46331 -3.30115 -0.229653 0.0219876 -0.146217
176 1 0.151302 0.131213 0.0330319 1.33961 -3.26585 0.253961 0.0704963 -0.231941
170 1 0.126717 0.130023 0.00981009 7.68929 -3.25481 0.718525 -0.0939188 -0.724492
175 1 0.165296 0.100079 0.0256487 0.480053 -3.33077 0.2452 -0.0487049 0.363361
179 1 0.206044 0.0953719 0.0225295 1.84991 -3.28093 0.0239886 -0.0900337 -0.491655
180 1 0.192521 0.124867 0.0285808 6.15337 -3.24623 -0.102025 0.0829397 0.0994097
1777 1 0.194651 0.10085 0.0516852 2.0851 -3.25738 -0.705419 -0.184092 -0.7605
1778 1 0.218661 0.124665 0.0520436 2.85102 -3.20926 0.143926 0.653933 0.478279
184 1 0.232823 0.123316 0.0254533 11.2748 -3.18989 0.430363 -0.599747 -0.762744
1782 1 0.260443 0.120939 0.0468739 6.19564 -3.20907 -0.951052 0.020869 -0.0861359
188 1 0.271716 0.111773 0.0151131 8.7834 -3.19779 0.0139387 0.248275 0.776607
263 1 0.255738 0.144462 0.0114933 7.6214 -3.27882 -0.0263434 0.17091 0.320566
1786 1 0.295863 0.1158 0.0386482 3.16557 -3.27206 0.803073 -0.0592371 -0.0943868
267 1 0.295099 0.13713 0.00866608 3.27751 -3.27402 -0.042367 0.660164 -0.09767
1865 1 0.2804 0.146947 0.0394197 2.2034 -3.21853 0.279555 -0.0491806 -0.343728
192 1 0.307039 0.108346 0.000330699 6.61095 -3.27321 0.135697 0.0288979 0.191045
1869 1 0.318239 0.143425 0.0328139 2.96094 -3.27907 0.629634 -0.314381 -0.0948413
271 1 0.334461 0.13467 0.00151698 7.15179 -3.26173 -0.773678 0.19326 0.634271
1790 1 0.335048 0.112318 0.0282687 6.77194 -3.31441 -0.388378 -0.0521806 -0.106973
196 1 0.363402 0.113874 0.00559472 0.825917 -3.30578 0.104637 -0.662411 -0.209365
1873 1 0.360121 0.136837 0.0282394 7.95906 -3.34788 0.110396 0.421495 -0.00435539
1794 1 0.389407 0.114245 0.0294733 0.605265 -3.31135 0.0237179 -0.0497803 0.197976
275 1 0.391881 0.137553 0.00677049 0.771791 -3.27602 -0.294479 0.0728421 -0.0580428
200 1 0.42004 0.112481 0.00841064 0.687347 -3.32563 -0.0357721 0.484294 -0.0112643
1877 1 0.416237 0.140302 0.0303057 0.723333 -3.28706 0.106818 -0.368202 0.163654
1798 1 0.447854 0.115542 0.0323082 0.788403 -3.23628 -0.667911 0.433489 -0.469555
279 1 0.445595 0.138734 0.00905456 0.534022 -3.32425 -0.306072 0.102238 -0.525419
204 1 0.475272 0.117441 0.0113514 0.512792 -3.31789 0.061954 -0.171906 -0.432978
1881 1 0.470428 0.143293 0.0308261 1.59237 -3.22076 0.731093 -0.39579 0.360435
1802 1 0.501713 0.11991 0.0342282 0.336681 -3.3539 -0.192661 -0.290472 0.0420287
283 1 0.500508 0.143115 0.0105459 0.458629 -3.2922 0.0741263 0.18598 -0.0381142
208 1 0.53347 0.120779 0.0121832 0.960957 -3.28085 -0.638444 -0.105846 -0.132356
1885 1 0.526165 0.143645 0.0327583 1.65719 -3.30855 0.497278 0.522824 0.531485
1806 1 0.556214 0.121917 0.0358767 0.678661 -3.3007 0.308323 0.0870565 0.66823
287 1 0.559305 0.14692 0.0119761 1.48284 -3.32535 -0.196266 -0.267265 0.389772
212 1 0.586486 0.121704 0.016748 0.832496 -3.33472 0.102462 0.162443 0.0831347
1810 1 0.614291 0.124484 0.0419862 0.657609 -3.28016 -0.4709 -0.151685 -0.303366
1889 1 0.583411 0.146869 0.0376518 0.73891 -3.25723 -0.0518368 -0.593059 0.445135
291 1 0.612764 0.148613 0.0195442 0.803487 -3.23688 0.270217 -0.219967 -0.516388
216 1 0.639562 0.12679 0.0177338 4.10395 -3.26591 0.452042 -0.110058 0.803055
1893 1 0.638902 0.148383 0.0441239 0.866023 -3.27936 0.159709 0.46857 -0.278065
295 1 0.669139 0.152178 0.0243279 1.59116 -3.33165 -0.34912 -0.172874 -0.620068
1814 1 0.668625 0.126587 0.046088 0.70444 -3.32486 -0.0464736 -0.0392147 -0.212416
220 1 0.69698 0.13014 0.0239778 1.05803 -3.31396 0.311848 -0.119028 -0.0371181
217 1 0.699671 0.106358 0.00245969 1.9608 -3.30614 0.5185 -0.649607 0.358553
219 1 0.728321 0.107021 0.0270171 0.435488 -3.28643 -0.124317 -0.0580097 -0.174435
218 1 0.728632 0.130261 0.00307208 0.507607 -3.31186 -0.0605201 0.0122657 0.0905964
1897 1 0.694822 0.154041 0.0463869 0.606654 -3.21682 -0.170686 -0.337245 -0.321603
299 1 0.726563 0.15316 0.0253656 0.848166 -3.33018 -0.134989 0.528093 -0.265401
224 1 0.754752 0.129441 0.0266791 1.81097 -3.27098 0.339742 0.967542 0.236278
221 1 0.75977 0.108377 0.00595956 0.426351 -3.32714 -0.0271987 -0.450497 -0.296889
223 1 0.784802 0.109457 0.0314442 1.05076 -3.30373 0.181691 -0.167955 -0.526572
222 1 0.786541 0.132225 0.00578309 0.8602 -3.33992 0.00559964 0.368817 0.356246
228 1 0.81133 0.134374 0.0289327 1.79321 -3.30327 0.356816 -0.336673 0.62852
225 1 0.818541 0.109144 0.0108682 1.02364 -3.31115 -0.263105 0.612975 -0.159925
227 1 0.841905 0.112298 0.035215 0.839252 -3.31261 0.539365 0.207747 -0.320279
232 1 0.87237 0.137888 0.0376054 1.72419 -3.3456 -0.576734 -0.330606 -0.512879
226 1 0.84386 0.137022 0.0116439 0.840714 -3.36355 0.384553 -0.588654 -0.169499
229 1 0.872326 0.111755 0.0156743 1.60173 -3.3467 0.320191 0.467556 -0.1143
231 1 0.90102 0.112364 0.0392671 0.728274 -3.31657 -0.32732 0.414091 -0.165049
236 1 0.927023 0.137992 0.0407773 0.424009 -3.34372 0.00608853 0.191834 0.1553
233 1 0.93119 0.114863 0.0179746 0.245373 -3.32171 0.287375 0.0310597 0.0741197
230 1 0.901288 0.137057 0.0162352 0.378803 -3.33598 0.102424 0.15815 0.0677062
235 1 0.955073 0.115433 0.0429922 0.545877 -3.33823 0.10816 0.0729918 0.231277
234 1 0.95778 0.140467 0.0206139 0.318984 -3.32784 -0.25414 -0.11776 -0.112434
240 1 0.981455 0.141294 0.0441891 0.96369 -3.33691 0.259095 0.0642997 0.501643
237 1 0.986389 0.117075 0.0239999 0.44835 -3.28658 0.0570246 0.229393 0.215269
242 1 0.0434543 0.19194 0.00481586 0.469177 -3.35132 -0.139814 -0.0213395 0.0624437
241 1 0.0430731 0.168681 0.0297051 0.901401 -3.26944 -0.287203 0.441016 0.092794
318 1 0.0111747 0.190907 0.0248789 0.347495 -3.34402 0.013663 -0.00448478 0.339534
30719 1 0.0168621 0.167606 0.00518547 1.0938 -3.23743 -0.558742 0.295146 -0.448915
248 1 0.0677007 0.193276 0.0303188 1.28181 -3.23967 0.467183 0.0263597 -0.869533
245 1 0.0754497 0.171764 0.00547222 8.441 -3.2114 -0.977834 -0.900854 0.225948
247 1 0.0990794 0.168993 0.0308073 7.66207 -3.28994 0.181723 0.534286 -0.0591937
246 1 0.0998105 0.192303 0.00734673 6.1634 -3.2206 0.832896 1.27135 0.200151
249 1 0.119945 0.16379 0.00456833 5.45177 -3.16149 -0.501037 0.0777493 0.205574
252 1 0.127793 0.194584 0.0331161 10.969 -3.27215 -0.200908 -0.248275 -0.608602
251 1 0.137042 0.162432 0.0375423 7.8106 -3.32316 0.495279 0.297957 0.122421
256 1 0.165561 0.187956 0.0400175 10.593 -3.23606 -0.509654 -0.419225 -0.312998
250 1 0.147079 0.186462 0.00612943 4.21372 -3.21826 -0.441457 0.542806 0.320373
255 1 0.176905 0.15563 0.0313835 6.32477 -3.33368 -0.0248709 0.0767715 -0.204512
253 1 0.154127 0.15412 0.00052735 7.02373 -3.22953 0.554494 -0.222028 -0.035342
259 1 0.21505 0.149621 0.0192755 6.67248 -3.28751 0.0533407 0.755216 -0.135816
260 1 0.20111 0.182247 0.0306832 2.94769 -3.16784 0.610461 -0.0644052 -0.0117596
254 1 0.183103 0.176591 0.00592954 10.4361 -3.12196 -0.67648 -0.219286 -0.101221
264 1 0.23959 0.177214 0.0194897 1.92479 -3.36504 0.33508 -0.116269 0.24604
268 1 0.281982 0.170962 0.0160598 0.524075 -3.33182 -0.129491 -0.219658 0.0423611
1866 1 0.307963 0.171948 0.0411208 0.765164 -3.26776 -0.126262 0.30303 -0.12821
272 1 0.322299 0.168767 0.0106638 2.20789 -3.30484 -0.443172 -0.562554 -0.211669
276 1 0.359056 0.160143 0.00478896 7.51331 -3.33557 0.301573 0.129995 0.177029
351 1 0.348311 0.192018 0.0137734 1.6002 -3.26671 -0.108568 -0.0467629 -0.676418
1870 1 0.348265 0.169113 0.0359832 0.743663 -3.31739 0.0927021 -0.434745 -0.172266
347 1 0.307076 0.197883 0.0157074 0.786867 -3.2798 0.0111326 -0.275422 0.000324365
1953 1 0.374123 0.192925 0.0363709 0.354334 -3.31391 0.220534 0.225157 0.12873
355 1 0.388044 0.185475 0.00508469 7.24396 -3.38297 0.0327137 0.16311 -0.0798779
1874 1 0.389307 0.163653 0.0288178 7.03211 -3.32708 -0.549898 -0.365091 0.278062
280 1 0.418224 0.162832 0.00692611 0.598872 -3.27484 -0.355107 -0.0493464 -0.153969
1957 1 0.41427 0.188061 0.0305599 6.73875 -3.29018 -0.320933 -0.259422 -0.208659
359 1 0.441379 0.188008 0.00691195 0.47796 -3.33884 0.00989099 0.0729538 -0.162143
1878 1 0.442646 0.164138 0.0321699 0.440199 -3.28874 -0.178524 0.490809 -0.290931
284 1 0.471763 0.165801 0.0088259 0.184664 -3.36298 -0.271832 0.0635999 -0.166094
1961 1 0.469541 0.189037 0.0319915 0.376656 -3.3137 -0.585311 -0.00336983 -0.0462911
1882 1 0.49714 0.167686 0.0331137 0.466687 -3.30984 0.384814 -0.231171 0.0452766
363 1 0.497986 0.190893 0.00943627 0.341847 -3.27889 -0.130905 -0.099281 0.12542
288 1 0.527448 0.170066 0.0133389 0.995431 -3.38131 0.252959 -0.183525 -0.323933
1886 1 0.55585 0.167658 0.035717 1.21855 -3.31324 -0.652655 0.559597 0.0963995
367 1 0.558159 0.195234 0.0153409 2.35984 -3.28516 -0.698999 -0.535332 -0.774677
1965 1 0.526022 0.192773 0.0351116 0.704196 -3.28858 -0.13338 -0.636745 -0.0909636
292 1 0.586674 0.171395 0.0158996 1.08383 -3.27331 -0.577207 -0.102725 -0.190652
1969 1 0.580333 0.193169 0.0384911 0.952257 -3.28213 0.239335 0.216953 0.530387
1890 1 0.609668 0.170534 0.041109 0.918784 -3.31428 0.27935 0.509594 0.326761
371 1 0.607661 0.196841 0.0155059 1.07088 -3.28755 0.348187 -0.0243982 0.15956
296 1 0.639624 0.173419 0.0201768 0.487968 -3.3695 -0.158971 0.190758 -0.0615172
1973 1 0.63477 0.197425 0.0406808 0.464237 -3.33914 0.169728 -0.134624 0.186729
1894 1 0.66615 0.177369 0.0436193 1.15075 -3.30559 -0.50326 -0.303689 0.0191536
375 1 0.666127 0.19929 0.0176979 1.07151 -3.29972 -0.410632 -0.00300466 0.383857
300 1 0.695185 0.178285 0.0227511 0.601349 -3.28217 0.198141 -0.492492 -0.203549
1898 1 0.722236 0.17637 0.0469924 1.05918 -3.25422 -0.335877 0.621335 -0.0191884
1977 1 0.69286 0.200424 0.0430816 0.736863 -3.28103 -0.00215925 0.241949 0.862889
379 1 0.722608 0.203667 0.0243947 0.975742 -3.32214 0.499541 -0.345556 -0.264402
298 1 0.724931 0.178531 0.003285 0.660363 -3.35467 0.412197 0.158662 -0.0277676
304 1 0.752184 0.179942 0.029291 1.21619 -3.33285 0.147195 -0.00959105 -0.716066
303 1 0.784176 0.156703 0.0295571 0.519206 -3.25866 -0.599366 -0.129689 -0.252542
302 1 0.782848 0.179869 0.010205 2.25807 -3.29549 -0.00763618 0.348138 -0.786923
1981 1 0.749129 0.204323 0.0485196 0.847346 -3.32425 0.350369 -0.137648 0.106375
301 1 0.755328 0.156769 0.00456443 0.883389 -3.32781 0.164903 -0.355064 0.605391
308 1 0.810832 0.180418 0.031206 0.682195 -3.32794 0.0824896 0.800768 0.255639
305 1 0.813673 0.158635 0.00850206 0.523062 -3.28719 -0.0988266 -0.133165 -0.361728
307 1 0.837789 0.159003 0.0325287 1.13092 -3.28513 0.834838 -0.157855 0.326919
312 1 0.867895 0.182366 0.0360557 0.689155 -3.35332 0.0251489 0.14836 -0.132274
306 1 0.842943 0.182497 0.00987117 0.57236 -3.37434 0.000304812 0.12403 0.265015
309 1 0.873253 0.159909 0.0128861 0.709294 -3.31665 -0.552536 0.12691 0.243232
311 1 0.899539 0.162299 0.0372226 1.18015 -3.26743 -0.765431 -0.163308 0.643553
316 1 0.925566 0.187289 0.041859 0.416719 -3.23045 -0.356823 0.257066 0.177143
313 1 0.929038 0.163975 0.0201777 0.975648 -3.30079 0.28951 -0.101014 -0.847704
310 1 0.897766 0.1864 0.0149864 0.541495 -3.35033 0.259743 -0.079089 0.032198
315 1 0.955322 0.165172 0.0435201 0.685895 -3.27101 0.00504181 -0.305935 -0.134131
320 1 0.980897 0.189392 0.0468932 0.693022 -3.26691 0.666301 0.101076 -0.710466
317 1 0.98402 0.165461 0.0211888 1.74629 -3.32129 -0.120894 0.237433 0.673148
314 1 0.953725 0.190266 0.0236155 2.71267 -3.25197 0.718382 -0.419332 -1.32569
323 1 0.0377514 0.214968 0.0280672 0.937896 -3.22309 0.716986 -0.113335 -0.620254
324 1 0.00943189 0.235973 0.0222311 1.49475 -3.24252 -0.0945999 0.993022 0.63268
399 1 0.00880181 0.21431 0.0462176 0.680044 -3.28771 -0.492264 -0.157496 0.623605
321 1 0.0142758 0.214463 0.00245001 0.654217 -3.28267 -0.347514 -0.41775 -0.36629
322 1 0.0401799 0.238318 0.00398006 0.471948 -3.30485 0.365005 0.356694 -0.313425
328 1 0.0666852 0.238735 0.0286726 0.807666 -3.30557 0.175137 0.489963 -0.177718
325 1 0.0684521 0.217451 0.0062781 0.588562 -3.32093 0.389914 -0.379764 -0.291231
327 1 0.0952713 0.216537 0.0296616 1.0689 -3.30115 0.631207 0.350331 -0.453503
332 1 0.122419 0.241241 0.0339265 2.14024 -3.30135 0.139322 0.178975 -0.847852
326 1 0.0988995 0.241798 0.00555222 0.886619 -3.33925 -0.0508133 -0.315892 0.417718
329 1 0.129872 0.217938 0.00858734 7.38668 -3.27896 -1.03368 -0.216453 -0.190542
331 1 0.15332 0.218527 0.0314331 9.35472 -3.25459 0.425712 0.396757 0.672907
336 1 0.178307 0.246157 0.0349381 9.91444 -3.22823 0.0948997 0.101846 -0.0936302
330 1 0.153107 0.24386 0.0106215 6.62575 -3.25589 0.143184 0.24544 0.267416
333 1 0.169098 0.213875 0.00428708 4.78617 -3.1423 0.0316462 -0.622327 -0.00743767
335 1 0.192364 0.213341 0.0387643 6.17125 -3.25258 -0.349963 0.312204 -0.333712
334 1 0.193245 0.236684 0.00902646 1.83603 -3.2096 0.352305 -0.0241503 -0.128967
340 1 0.220956 0.24103 0.0380772 7.79383 -3.24173 -0.759927 -0.645355 0.130595
337 1 0.204765 0.202056 0.000845306 8.02202 -3.23764 0.0630666 0.596052 0.456521
339 1 0.227303 0.210215 0.0261338 3.79163 -3.28143 -0.0133304 -0.637345 0.317419
338 1 0.229995 0.229436 0.00339205 2.97803 -3.25144 0.0674487 0.369433 -0.189914
343 1 0.267264 0.202974 0.0215354 0.752134 -3.30626 0.0367345 -0.612568 0.384669
344 1 0.255745 0.232373 0.0286467 1.9894 -3.18298 0.0776582 -0.00471463 0.055607
348 1 0.297596 0.227288 0.0234495 1.80982 -3.23101 -0.634622 0.18259 0.260007
1945 1 0.292859 0.203562 0.0454256 1.16449 -3.33135 -0.0581431 -0.19272 0.268223
342 1 0.271118 0.225881 1.00104 1.73899 -3.28523 -0.665155 0.130067 -0.544425
1949 1 0.33134 0.19928 0.0405322 1.14851 -3.2985 0.38751 0.0100365 0.0833464
352 1 0.333905 0.222399 0.0182048 0.609562 -3.26203 0.376659 0.0712381 -0.150793
1946 1 0.319892 0.23167 0.048703 1.35189 -3.28026 -0.0246621 -0.692375 -0.00485218
1950 1 0.359815 0.223233 0.0413788 0.956862 -3.32519 0.00573459 -0.0754524 0.320113
431 1 0.359938 0.24664 0.0207106 6.65473 -3.32619 0.0242516 0.600646 0.0666857
356 1 0.373891 0.215911 0.012215 0.587994 -3.31783 0.18507 0.0791038 0.108232
1954 1 0.401875 0.219942 0.0366052 1.0324 -3.27537 -0.80041 -0.453054 -0.0746227
360 1 0.413755 0.213396 0.00624686 7.00048 -3.24547 -0.558531 -0.936042 -0.195755
435 1 0.400848 0.242201 0.0140918 2.99417 -3.24367 -1.05381 0.433689 -0.0974877
2033 1 0.386028 0.248883 0.0450162 6.62357 -3.31651 -0.0782944 0.536713 -0.604653
2037 1 0.42525 0.244447 0.0374477 0.875879 -3.27731 0.107127 0.11232 0.181762
439 1 0.437755 0.237319 0.00809125 7.04526 -3.25319 0.455741 -0.0448327 -0.256796
1958 1 0.437918 0.211461 0.0292927 7.66945 -3.22228 0.675187 0.330141 0.61809
364 1 0.466797 0.212214 0.00918009 0.627304 -3.29489 0.0458113 0.181254 -0.551841
2041 1 0.465124 0.234756 0.0314412 6.49909 -3.36415 -0.0220992 0.417539 0.109764
1962 1 0.494622 0.213146 0.0314975 0.73634 -3.26992 0.113321 0.273424 0.526918
443 1 0.494796 0.236209 0.0089738 0.849326 -3.32802 -0.0232485 0.268747 0.102458
2045 1 0.520947 0.239728 0.0341264 0.339199 -3.335 -0.130821 -0.336536 0.108923
368 1 0.524605 0.214806 0.0126644 0.913134 -3.319 0.369669 0.35535 -0.415469
1966 1 0.551396 0.216351 0.0367165 0.598637 -3.30809 0.127201 0.704029 0.045793
447 1 0.550153 0.24171 0.0123423 0.286707 -3.30587 0.16604 -0.111753 7.4591e-05
372 1 0.580245 0.221306 0.0148372 1.0014 -3.25128 -0.121208 -0.203892 0.230882
2049 1 0.575738 0.243838 0.0371905 0.621265 -3.36332 0.151028 -0.211626 0.056283
1970 1 0.606152 0.219131 0.0376226 1.22557 -3.30956 -0.403099 0.387344 0.608766
451 1 0.606271 0.245835 0.0156105 0.833935 -3.30649 0.385384 -0.383587 0.469251
376 1 0.634895 0.219612 0.0175309 1.22173 -3.3164 0.406044 0.575924 -0.173292
2053 1 0.632515 0.243509 0.0412284 1.25857 -3.26197 0.00740728 1.0438 -0.632649
1974 1 0.662517 0.222592 0.0407396 0.693991 -3.29702 -0.0176043 -0.114074 0.39465
455 1 0.663124 0.247296 0.0197597 0.569349 -3.32544 0.0252255 -0.697799 -0.0737576
380 1 0.691209 0.223026 0.0215393 1.77088 -3.29644 0.628605 0.792027 -0.365141
2057 1 0.689429 0.247899 0.0457894 1.10734 -3.2316 0.861877 -0.196847 -1.08085
1978 1 0.721829 0.226044 0.0460322 0.713199 -3.34625 -0.278379 0.145962 0.17372
459 1 0.722109 0.247237 0.0231873 1.05704 -3.36139 -0.367709 0.225656 0.361656
457 1 0.697226 0.249178 0.998589 1.20857 -3.30649 -0.858104 -0.525483 0.255753
378 1 0.727512 0.225382 0.00227867 1.13526 -3.29575 -0.725765 0.101322 -0.0114506
384 1 0.756105 0.227866 0.0253625 2.16582 -3.22461 -1.16603 -0.361687 0.235319
381 1 0.754517 0.203765 0.00391063 0.643198 -3.33323 -0.0780774 -0.626105 0.382504
383 1 0.781817 0.205393 0.0293205 0.564743 -3.29494 -0.133533 -0.53311 0.0860149
388 1 0.808796 0.228452 0.0300089 0.431416 -3.31385 0.153299 0.186021 -0.208185
382 1 0.784144 0.226357 0.00509681 1.3063 -3.28425 0.125742 0.706961 -0.103003