ITEM: TIMESTEP
9250
ITEM: NUMBER OF ATOMS
32000
ITEM: BOX BOUNDS pp pp pp
3.6190689133460254e+00 7.7380931086654016e+01
-1.8469415268514027e+00 8.2846941526851452e+01
-1.8486173205177892e+00 8.2848617320517491e+01
ITEM: ATOMS id type xs ys zs c_csym c_peratom fx fy fz
8 1 0.0527201 0.0239242 0.02517 0.853969 -3.27875 -1.03508 -0.503045 0.157841
1602 1 0.0255392 0.0255241 0.0521857 1.35897 -3.29078 -0.181246 -0.48986 -0.685087
4 1 0.0027722 0.0252217 0.0254978 1.05914 -3.33589 -0.249743 -0.522434 -0.0198456
83 1 0.0271488 0.0482538 0.0247302 0.922411 -3.30254 0.481411 0.158263 0.318773
3 1 0.0251978 0.997066 0.0222664 2.57614 -3.25328 0.0693615 0.566532 1.07352
2 1 0.0256903 0.0231571 0.998794 0.979375 -3.30689 0.107614 0.55151 0.521311
12 1 0.102394 0.0245257 0.0244772 0.745422 -3.30855 -0.172761 0.0624547 0.402976
1609 1 0.102755 0.999981 0.0518632 0.752623 -3.27534 -0.954067 -0.235221 -0.338674
6 1 0.0775205 0.022923 1.00104 0.673405 -3.25007 -0.0287187 0.19135 -0.0497428
16 1 0.150794 0.0245834 0.0263139 0.267123 -3.30581 -0.360969 0.245542 -0.269513
91 1 0.126363 0.0508253 0.026978 0.71765 -3.30417 0.297231 -0.424682 -0.320326
95 1 0.175345 0.0498955 0.0260179 0.681572 -3.29426 -0.0895137 0.0678889 0.409827
10 1 0.126471 0.0242807 0.000173732 0.353802 -3.30789 0.163128 0.14414 0.103417
14 1 0.179251 0.0260664 0.00412044 4.06021 -3.25869 -0.893493 -0.494118 -0.616004
20 1 0.203711 0.0250325 0.0270812 6.36943 -3.22728 -0.482757 0.145754 0.378025
99 1 0.223585 0.0510717 0.0264826 1.60016 -3.26589 0.741177 0.269208 -0.418278
18 1 0.22418 0.0272522 0.999799 1.7345 -3.22286 -0.0795965 -0.823986 0.236717
24 1 0.246983 0.0253209 0.0252514 5.93596 -3.27389 0.416911 -0.0851746 -0.093402
103 1 0.274747 0.0496163 0.0258559 0.465767 -3.26093 0.303309 -0.100835 0.0080818
1622 1 0.272932 0.0231866 0.0499032 1.73992 -3.31072 0.116513 0.521741 0.311794
1701 1 0.253092 0.0516656 0.0501835 2.6863 -3.21407 -0.553359 -0.153842 -0.163983
28 1 0.299189 0.0248854 0.0271315 0.583157 -3.26193 0.146614 -0.0241121 -0.349536
32 1 0.349497 0.0269897 0.0242555 0.593174 -3.27957 0.13558 -0.525779 0.0715055
26 1 0.323049 0.025777 0.000959785 0.478402 -3.33026 0.354172 -0.199308 -0.0325957
107 1 0.323553 0.0493635 0.0251034 0.515906 -3.27303 -0.122915 0.305044 -0.158742
109 1 0.350195 0.0508312 0.000768324 0.573557 -3.36721 -0.159272 -0.19096 -0.368819
27 1 0.32598 0.00111155 0.0250747 0.382611 -3.33125 -0.0392376 -0.0536711 0.128221
1629 1 0.350793 0.00150013 0.049969 0.653854 -3.32891 -0.125094 -0.000591351 0.130117
30 1 0.375139 0.0246615 -0.000568917 0.349002 -3.3455 -0.0547382 0.178194 0.0267725
36 1 0.398133 0.0249609 0.0252346 0.611153 -3.27614 0.349979 -0.0407986 -0.269383
111 1 0.374835 0.0496483 0.02486 0.604162 -3.24014 0.0905276 0.492851 -0.0746878
1630 1 0.375189 0.028275 0.0491472 1.14613 -3.29935 -0.250612 -0.413475 0.476827
35 1 0.425805 0.00106927 0.0249448 0.65212 -3.28626 -0.197518 -0.0549499 0.204797
40 1 0.450036 0.0249363 0.0249169 0.354271 -3.26102 0.372699 -0.0475814 -0.0501969
115 1 0.426512 0.0495575 0.0237891 0.839068 -3.29099 -0.617586 0.277631 0.0436784
1717 1 0.449395 0.0495912 0.0484333 0.736039 -3.27848 0.0197003 0.687822 0.676162
37 1 0.448702 0.998523 0.999115 0.599338 -3.23676 0.457447 0.758045 -0.141717
44 1 0.496465 0.0244132 0.0250886 1.37374 -3.36982 0.56587 0.18647 -0.180207
119 1 0.473582 0.0526834 0.0255032 1.51659 -3.21491 0.440344 -0.734208 -0.204915
1641 1 0.497638 0.999942 0.0483128 1.32358 -3.29445 0.764822 0.281674 -0.143616
1638 1 0.473139 0.0252383 0.050121 0.802514 -3.24915 0.358773 -0.00197398 -0.10557
38 1 0.473696 0.0241887 0.999786 0.339829 -3.29714 -0.054842 0.384091 -0.149208
48 1 0.549649 0.0232133 0.024011 0.679126 -3.31238 0.574093 0.198266 -0.157984
1646 1 0.574199 0.0232891 0.051892 1.59206 -3.25381 0.310243 0.312943 -0.932261
1725 1 0.551623 0.0483719 0.0469854 1.46562 -3.27794 -0.0731612 0.203461 0.393483
127 1 0.576406 0.0494496 0.023869 0.857154 -3.23808 0.0808497 -0.295117 0.655637
47 1 0.577166 0.998763 0.0248974 1.07823 -3.27777 -0.997661 0.175427 -0.404659
45 1 0.548928 0.999646 0.998286 0.6335 -3.32773 0.223667 0.27993 0.195399
52 1 0.600847 0.022979 0.0255213 0.631582 -3.33809 0.040567 0.563292 0.130281
51 1 0.625975 0.998853 0.0244828 0.335198 -3.25853 -0.324606 -0.00553542 0.729542
1650 1 0.627103 0.0239776 0.0487304 1.1313 -3.32396 -0.28316 -0.0900135 0.26773
1649 1 0.598238 0.998584 0.0495455 0.634065 -3.25396 0.699514 0.153783 0.188896
56 1 0.649892 0.0245385 0.0230903 0.770879 -3.22315 -0.0702099 0.148621 0.706072
60 1 0.699686 0.0261252 0.0256435 0.855083 -3.27335 0.0140843 -0.219009 -0.0419609
135 1 0.673635 0.050768 0.022928 1.22349 -3.32849 0.230699 0.180443 0.743964
137 1 0.699866 0.0507702 0.998921 0.722438 -3.33211 -0.0295834 0.255353 0.244273
55 1 0.675909 0.999033 0.0247957 0.575953 -3.3122 -0.352733 0.15031 -0.0591016
64 1 0.748441 0.0238433 0.0250245 0.814048 -3.25409 0.11015 0.444135 -0.205671
59 1 0.723983 1.00022 0.0238381 0.64 -3.27135 -0.121716 -0.117242 -0.0624635
1658 1 0.724217 0.0228704 0.0493787 0.683007 -3.29797 0.0644433 0.279866 0.247101
139 1 0.724887 0.0506787 0.0248277 0.450527 -3.32347 0.0695482 0.160057 -0.210571
141 1 0.748424 0.0495909 0.997154 1.60774 -3.23282 0.601306 0.0346931 0.213259
58 1 0.724678 0.0265406 0.000543166 0.928899 -3.27607 -0.446329 -0.485279 -0.21871
63 1 0.774367 0.000985746 0.0223246 1.27342 -3.27945 0.60862 0.0503787 0.437958
68 1 0.800458 0.024967 0.0221971 0.92118 -3.28048 0.157416 0.113994 0.627987
62 1 0.775474 0.0255962 0.999527 0.560294 -3.30176 -0.467494 -0.00621898 -0.421009
65 1 0.801625 0.00132213 0.999104 0.764868 -3.27544 -0.593164 -0.4592 -0.206013
72 1 0.851439 0.0249022 0.0260938 0.360023 -3.24204 -0.351026 -0.275427 0.127248
70 1 0.873338 0.0258943 0.0009799 0.999519 -3.29924 0.499499 -0.0874653 -0.377999
151 1 0.874951 0.0495248 0.0265833 0.412186 -3.28863 0.281371 -0.0519489 -0.472857
66 1 0.827575 0.0237082 0.000542904 1.20362 -3.2819 -0.139887 0.510301 -0.264619
149 1 0.849646 0.0500523 0.99813 2.03146 -3.30356 0.119554 0.480515 0.647705
76 1 0.900214 0.023808 0.0239948 1.00617 -3.27576 -0.213479 0.818768 0.255695
75 1 0.924881 0.00170423 0.0247532 0.496517 -3.28918 0.31829 -0.860596 -0.182162
1674 1 0.92568 0.0244108 0.048991 0.549767 -3.28064 -0.0449934 -0.0161303 0.224362
80 1 0.949861 0.0247386 0.0244488 0.409418 -3.28591 0.406127 -0.0538995 0.0146058
79 1 0.97656 0.999472 0.0241555 0.41365 -3.33787 -0.0418697 0.323964 -0.0547969
1677 1 0.951715 0.99967 0.0493077 0.287682 -3.32599 -0.0545941 0.0113906 -0.0381723
159 1 0.97477 0.0489036 0.0253249 0.435978 -3.31511 0.039223 0.112417 0.176047
1685 1 0.0495404 0.0501759 0.0525434 1.08552 -3.29798 0.240702 -0.0823203 -0.563014
88 1 0.0509983 0.0739023 0.0253882 0.244337 -3.33138 0.0277617 0.0392695 0.196766
1682 1 0.0237118 0.0750629 0.0501264 0.657811 -3.25977 0.630363 0.0333924 -0.15353
84 1 0.00130772 0.0739176 0.0259817 0.358348 -3.27979 -0.32231 0.2342 -0.0360975
81 1 0.00142867 0.050279 0.00263302 1.25371 -3.25216 -0.0616882 -0.496297 -0.569785
165 1 0.0508213 0.0991564 0.00133695 0.191058 -3.32022 -0.0530796 -0.116692 -0.232862
87 1 0.0749977 0.0476175 0.0262746 0.958021 -3.28723 0.241333 0.634071 -0.0334091
92 1 0.100953 0.0743727 0.0259804 0.13538 -3.26527 -0.28906 0.023799 0.248121
96 1 0.152147 0.0768367 0.024981 1.05349 -3.31147 0.137747 -0.700204 0.229568
1690 1 0.125279 0.0731338 0.0496104 1.09933 -3.29141 -0.134311 0.777528 0.236451
175 1 0.176454 0.100989 0.0235909 0.834183 -3.26893 0.103197 -0.0899259 0.288686
171 1 0.127439 0.0998028 0.0258766 0.562648 -3.26161 -0.248615 -0.136371 -0.0438746
1694 1 0.176921 0.0757867 0.0521003 1.2905 -3.27716 -0.551423 -0.156137 -0.620165
1697 1 0.200786 0.0520419 0.0499415 1.38051 -3.22212 -0.749084 -1.1524 0.503449
100 1 0.197929 0.0748877 0.0241663 1.9547 -3.3024 0.515349 0.223283 0.275392
1698 1 0.224734 0.073805 0.0502242 1.07713 -3.23712 0.235851 0.712349 -0.158457
1777 1 0.203108 0.0997861 0.0528389 2.96024 -3.28187 -0.130537 -0.18741 -0.539323
104 1 0.251859 0.0754129 0.0269069 0.757029 -3.30055 -0.293083 -0.0351845 0.0601913
1702 1 0.278093 0.0755862 0.0511481 1.89521 -3.32004 -0.0911836 -0.142572 -0.10078
108 1 0.299631 0.0745721 0.0234474 0.937531 -3.31662 0.247944 0.409917 0.47456
112 1 0.349325 0.0747208 0.0242216 0.428685 -3.31926 0.0861977 0.00940997 0.124941
1789 1 0.349019 0.101821 0.0510976 1.15611 -3.26043 0.506431 -0.568625 -0.24871
187 1 0.32621 0.0989476 0.0261791 1.40349 -3.30181 -0.742009 0.211771 -0.0623937
1705 1 0.299805 0.0481357 0.0512507 0.821098 -3.30466 -0.534745 0.210587 -0.0117322
116 1 0.399041 0.0752577 0.0226157 0.908211 -3.29873 0.299121 0.0286153 0.734007
1710 1 0.375362 0.075057 0.0493338 0.436781 -3.31952 -0.14561 0.491561 -0.319192
1713 1 0.400734 0.0522829 0.0498633 0.678748 -3.2899 0.193998 -0.367526 -0.352206
120 1 0.449508 0.0750608 0.0237395 0.757781 -3.25637 -0.101884 0.501782 0.606316
1797 1 0.450898 0.100907 0.0495492 0.256073 -3.36002 -0.0485237 -0.0818064 0.256865
123 1 0.526357 0.0497997 0.0231284 0.583177 -3.34085 -0.41409 -0.125308 0.220706
124 1 0.500166 0.0750573 0.0250105 0.269225 -3.2658 0.55898 -0.079762 -0.175438
122 1 0.525929 0.0749247 0.999746 0.43588 -3.32099 -0.0634331 -0.107772 0.135774
199 1 0.477432 0.0995225 0.0276669 2.14117 -3.25853 -0.710009 0.459704 -0.978776
203 1 0.525804 0.0991107 0.0254762 0.691058 -3.3179 0.239045 0.281086 -0.409375
1722 1 0.527231 0.0735296 0.0497884 0.813136 -3.31371 -0.101608 0.182662 -0.602596
1801 1 0.501667 0.0998667 0.0488988 0.350651 -3.20198 0.183447 0.304623 0.543378
128 1 0.551285 0.075324 0.0247565 0.479199 -3.30057 -0.137817 -0.015688 0.155534
1805 1 0.550301 0.101909 0.0504189 0.827487 -3.26752 0.0441126 -0.425307 -0.688685
1726 1 0.57502 0.0731226 0.0499254 0.888562 -3.32147 0.258931 0.558849 -0.124507
207 1 0.574589 0.101249 0.023736 0.568903 -3.25541 -0.122412 -0.0354168 0.459209
131 1 0.62512 0.0498294 0.0241204 0.246523 -3.40444 -0.130217 0.175868 -0.0927409
132 1 0.597382 0.0765128 0.023194 1.735 -3.24807 0.779664 -0.263827 0.606358
1730 1 0.623803 0.075515 0.0489975 0.422392 -3.34349 -0.0137801 -0.16963 0.10356
211 1 0.624738 0.100062 0.0243728 0.231018 -3.3355 -0.000382188 0.26064 0.0917831
1809 1 0.59949 0.100368 0.0500571 0.429637 -3.36459 0.00326651 0.0599192 -0.0577516
1729 1 0.600398 0.0490982 0.0500833 0.343679 -3.36566 0.162401 -0.169485 -0.188881
136 1 0.649671 0.0765376 0.0248407 0.338205 -3.25129 -0.22829 -0.254039 0.255642
140 1 0.70015 0.0773583 0.025984 1.36441 -3.36197 0.0892254 -0.535911 -0.293886
134 1 0.673398 0.0761751 0.00181672 1.85166 -3.30292 0.568926 -0.0962178 -0.633202
133 1 0.651656 0.0495602 0.997596 1.75065 -3.25745 -0.365317 0.176369 0.465383
213 1 0.650398 0.10139 0.998701 0.47647 -3.27082 0.181976 -0.413516 0.372307
1817 1 0.698541 0.101543 0.0478806 0.690222 -3.2967 0.0320005 -0.252115 0.589023
144 1 0.750797 0.0753298 0.0250351 0.473232 -3.31644 -0.235412 0.0254041 0.117381
219 1 0.725795 0.101551 0.024125 0.65314 -3.30216 -0.0108839 -0.271069 0.275985
143 1 0.772414 0.0489481 0.0230045 1.43753 -3.33941 0.384128 0.065519 0.125481
148 1 0.799415 0.0742263 0.0251637 0.432824 -3.2414 0.438963 -0.176934 -0.104208
145 1 0.801195 0.0506247 0.998683 0.81719 -3.32073 0.142226 -0.270195 0.411795
147 1 0.82769 0.0485692 0.0261504 1.46081 -3.31415 -0.388592 0.438989 -0.621939
152 1 0.852218 0.0761709 0.0289396 2.66753 -3.18711 -0.821437 -0.21983 -1.41449
231 1 0.874663 0.100782 0.0264885 0.690741 -3.28614 0.270727 -0.0296784 -0.260019
146 1 0.824136 0.0760837 0.00238693 1.07315 -3.33964 0.64694 -0.0478631 -0.270352
227 1 0.824916 0.100977 0.025158 0.278053 -3.35536 0.144733 -0.0124178 0.276113
150 1 0.874019 0.0767131 0.00194594 1.35026 -3.33467 -0.0261822 -0.4573 -0.239556
229 1 0.850116 0.10281 0.000276303 1.32743 -3.21443 0.178337 -0.699532 0.436647
155 1 0.927933 0.0508995 0.0246528 1.20221 -3.32262 -0.64873 -0.171924 0.222205
156 1 0.899728 0.0732669 0.0247103 1.15581 -3.32393 0.539856 0.495073 -0.0248014
160 1 0.95151 0.0749404 0.0251995 0.251893 -3.30718 -0.197921 0.451541 0.0576618
158 1 0.976432 0.0738368 0.00154992 0.441082 -3.29093 0.166145 0.544614 -0.355812
163 1 0.0257429 0.0998864 0.0260736 0.254345 -3.35423 -0.4819 0.0216767 -0.0942943
168 1 0.0508239 0.125182 0.025213 0.316493 -3.30783 0.129555 -0.082754 0.0611549
164 1 -0.00178851 0.126035 0.0250471 1.42394 -3.19005 1.11335 0.00124161 0.707797
243 1 0.0260684 0.148871 0.0248447 0.594574 -3.29411 0.0126253 0.0846767 0.110452
241 1 -9.6449e-05 0.150928 0.00245104 1.41026 -3.24472 0.420254 -0.00706822 -0.584637
162 1 0.0244221 0.124499 0.00250831 0.999755 -3.30737 0.365108 0.214848 -0.53325
167 1 0.0766502 0.0993093 0.024656 0.339157 -3.23225 -0.753709 -0.26273 0.569291
172 1 0.101664 0.121267 0.0245234 2.37928 -3.20805 -0.163696 1.13283 0.428174
1766 1 0.0752356 0.124103 0.0493822 0.422144 -3.35336 0.186601 0.0556 0.316464
166 1 0.0753878 0.123957 0.000745354 0.393713 -3.30404 -0.178466 0.0608141 -0.150783
247 1 0.0780648 0.150431 0.0269346 1.28322 -3.37744 -0.0578236 -0.0978327 -0.134832
1849 1 0.100525 0.149875 0.0530812 1.8619 -3.24476 -0.381035 -0.187377 -0.44635
176 1 0.15122 0.125391 0.0252952 0.504797 -3.31601 -0.092744 -0.0590196 -0.129718
1774 1 0.178169 0.12343 0.0478558 2.06001 -3.25207 -0.520991 0.15728 0.161212
179 1 0.225379 0.0993247 0.026144 0.449164 -3.31929 0.0332371 0.011588 0.174497
180 1 0.20146 0.124053 0.0238606 0.840498 -3.27898 0.0762614 0.462083 -0.0190383
1778 1 0.225799 0.126835 0.0494631 0.581701 -3.33742 0.0176527 -0.149581 -0.230388
183 1 0.275107 0.101399 0.0241493 0.529042 -3.25893 0.330061 -0.406519 0.18233
184 1 0.25246 0.125678 0.0264709 1.08028 -3.30725 -0.680127 0.127802 -0.195242
263 1 0.276875 0.150668 0.0245199 0.426933 -3.25417 0.056251 0.260242 -0.19743
1782 1 0.278672 0.126361 0.049487 1.68323 -3.19973 -0.988095 0.18172 0.0211672
188 1 0.299533 0.125432 0.0233524 0.792137 -3.28293 0.536898 -0.200951 0.13007
192 1 0.350197 0.123463 0.0248557 0.503426 -3.30348 0.24437 0.465096 0.0163182
267 1 0.327059 0.148218 0.0244145 0.965722 -3.27484 -0.325351 0.287639 -0.0309755
1786 1 0.32459 0.124684 0.0510443 0.502135 -3.28171 -0.400983 0.387527 -0.378968
1785 1 0.299046 0.101528 0.0500833 0.889464 -3.25821 0.491394 -0.610209 -0.177675
191 1 0.374255 0.100189 0.0250881 0.271868 -3.33918 0.0940993 -0.208471 -0.107739
196 1 0.398852 0.125042 0.0260026 0.753362 -3.31179 0.259314 -0.0573877 -0.601863
273 1 0.399856 0.148408 0.999077 0.712259 -3.36453 0.0685752 -0.0710529 0.10131
190 1 0.374527 0.122895 0.998264 0.944824 -3.30436 0.0944669 0.323146 0.457376
193 1 0.400423 0.100458 0.998411 0.830754 -3.31356 0.00655996 -0.0823204 0.400061
195 1 0.424689 0.0998469 0.0249309 0.246954 -3.34356 0.0625995 0.297216 -0.187345
200 1 0.451236 0.125803 0.0255747 0.374733 -3.33468 0.0745888 -0.327738 -0.0852531
194 1 0.427791 0.125647 -0.000203687 1.16397 -3.32849 -0.495191 -0.152804 0.188534
204 1 0.502191 0.125193 0.0237604 0.729391 -3.33458 -0.252864 -0.126848 0.18216
198 1 0.474773 0.124353 -1.24462e-05 0.486515 -3.30531 0.0156277 0.0473219 0.0715973
279 1 0.478095 0.150055 0.0225381 2.10446 -3.32907 0.00663013 -0.00608327 0.669375
283 1 0.522755 0.151751 0.0248189 5.75618 -3.30358 0.036124 -0.422015 0.0340818
208 1 0.550606 0.127078 0.0256493 0.806247 -3.35292 -0.514083 -0.193513 -0.322929
1806 1 0.57419 0.126214 0.0497651 0.250846 -3.24541 0.049365 -0.269755 0.0562436
212 1 0.599425 0.124669 0.024975 0.380156 -3.33087 0.418358 0.321026 0.141334
1889 1 0.598156 0.150186 0.0497849 0.512503 -3.32007 0.333055 0.207931 -0.161644
291 1 0.625328 0.15045 0.0265519 0.805799 -3.32507 -0.205236 -0.146785 -0.357517
1810 1 0.627849 0.125622 0.0496287 1.35128 -3.32156 -0.613505 0.060444 -0.242921
215 1 0.673798 0.10216 0.0240063 0.56112 -3.23594 -0.221992 -0.499171 0.0754235
216 1 0.650718 0.126695 0.0233323 0.519515 -3.27932 -0.056016 -0.0650249 0.209272
220 1 0.697986 0.124561 0.0233356 1.38368 -3.20943 0.530779 0.286171 0.151515
295 1 0.677142 0.150102 0.0254755 0.710062 -3.29096 -0.25637 0.360416 -0.276385
214 1 0.675232 0.126169 0.998077 0.541275 -3.24441 0.0216936 -0.134126 0.336337
1893 1 0.651703 0.152555 0.0491148 1.13798 -3.27713 -0.294795 -0.454154 0.51089
1814 1 0.674233 0.126832 0.0494059 0.522146 -3.32026 -0.0657676 -0.243381 0.114731
1897 1 0.701913 0.149774 0.0499971 0.770033 -3.28488 -0.422759 0.668878 -0.0868544
221 1 0.750194 0.100712 0.000358587 0.304112 -3.30558 0.0210012 -0.184829 -0.0887462
224 1 0.75234 0.125856 0.0256625 1.19687 -3.30377 -0.270208 -0.262825 0.0638888
1818 1 0.723724 0.12568 0.0480202 0.753782 -3.30741 0.678185 -0.319152 0.243016
299 1 0.72616 0.150315 0.0245214 0.405357 -3.31283 -0.330157 0.0213288 0.230781
218 1 0.725369 0.125836 0.00175111 1.1011 -3.26123 0.116056 -0.551994 -0.468798
301 1 0.749402 0.149024 0.999865 0.527998 -3.25046 -0.0240108 0.577633 -0.301522
1821 1 0.751079 0.0998625 0.0495712 0.273104 -3.32292 -0.391983 -0.141357 0.18982
223 1 0.775915 0.0998088 0.0265462 0.567706 -3.27172 -0.059848 0.291738 -0.407267
228 1 0.798645 0.127264 0.0246166 0.959674 -3.35739 -0.0561948 -0.506075 0.43078
303 1 0.77367 0.151603 0.0243069 0.613845 -3.29035 0.193883 0.162017 0.143648
1822 1 0.774032 0.12514 0.0518961 0.981652 -3.20228 0.99482 0.0465185 -0.86972
225 1 0.799619 0.102414 0.0020717 1.0016 -3.29016 -0.126666 -0.358629 -0.466059
305 1 0.799976 0.150106 0.00177803 0.731044 -3.30457 0.0818497 0.145368 -0.609014
232 1 0.852235 0.126109 0.0259026 0.848792 -3.30425 -0.528798 -0.347546 -0.187593
309 1 0.849626 0.148732 0.00127766 0.749215 -3.30626 0.422263 0.326042 -0.0655313
230 1 0.877271 0.123441 0.000472878 1.20696 -3.25067 -0.353144 0.662719 0.161274
311 1 0.877079 0.148664 0.0251914 0.64499 -3.22899 -0.303736 0.598174 0.224927
1830 1 0.874499 0.123812 0.0517661 0.751691 -3.32925 0.462974 0.259425 -0.0497476
235 1 0.925814 0.101325 0.0261735 0.882312 -3.36474 0.144208 -0.401474 -0.0991688
236 1 0.900605 0.125485 0.0268369 0.474315 -3.32252 0.153038 -0.367062 -0.0555715
233 1 0.900625 0.099904 0.000531373 0.301572 -3.24473 0.423097 -0.516569 0.509104
234 1 0.924427 0.123441 4.24827e-05 0.982046 -3.30661 0.298376 0.37652 0.220413
161 1 0.000797137 0.09992 -0.000114165 0.457946 -3.3212 0.07185 -0.557572 0.084675
239 1 0.977764 0.100884 0.0261207 0.816708 -3.27986 -0.513233 -0.784152 -0.290176
240 1 0.952885 0.124855 0.0233745 1.77145 -3.30033 -0.648496 -0.22639 0.452642
238 1 0.978608 0.125365 1.00017 1.14203 -3.16631 -0.818728 -0.291009 -0.450439
319 1 0.97472 0.150391 0.0259021 0.66814 -3.23637 0.0881669 0.0597387 0.272461
237 1 0.95176 0.099431 0.000690719 0.273566 -3.33986 0.196435 -0.00430331 0.134479
248 1 0.0495368 0.174148 0.0268356 1.29361 -3.30293 0.783917 -0.0434239 -0.649026
323 1 0.0274163 0.199239 0.0252171 0.594042 -3.32463 -0.204194 0.166963 0.083391
1845 1 0.0505681 0.149014 0.0500632 0.373779 -3.28206 -0.0227521 0.0584203 -0.0377972
244 1 0.00165629 0.174712 0.0246212 0.318806 -3.28813 0.151011 -0.0435663 0.0254853
321 1 0.00158802 0.199072 1.00053 0.318889 -3.27932 -0.376805 -0.0799128 0.242336
242 1 0.0259129 0.175102 0.998861 0.598204 -3.29414 0.250216 -0.235232 0.408061
252 1 0.101992 0.177602 0.0258856 6.76346 -3.23655 0.578083 -1.24774 0.1189
327 1 0.0779098 0.199619 0.0251009 0.973787 -3.22 -1.23571 0.351603 0.0722672
251 1 0.123071 0.147271 0.0267303 2.48501 -3.35266 -0.0096881 0.59711 -0.344366
255 1 0.173574 0.152482 0.0249903 1.73577 -3.2419 0.531534 -0.240581 -0.542189
256 1 0.146284 0.176212 0.0250322 2.73082 -3.25282 0.630004 -0.74463 -0.378925
331 1 0.127603 0.201121 0.0259664 1.03659 -3.20873 -0.456572 0.552669 0.0200486
1853 1 0.152444 0.15108 0.0485534 1.52143 -3.21752 -0.472062 -0.680436 0.599501
1850 1 0.126882 0.174159 0.0508891 1.10876 -3.24831 -0.218786 0.415708 -0.270968
333 1 0.152452 0.198715 0.999045 1.52836 -3.26259 -0.700775 0.819484 -0.131975
259 1 0.22602 0.15057 0.0225212 0.733911 -3.25965 0.113027 -0.498679 0.656876
260 1 0.202421 0.173593 0.0228299 1.97487 -3.27414 -0.480793 0.678105 0.467313
339 1 0.226548 0.199456 0.0227388 0.536446 -3.31933 -0.23652 -0.0307119 0.181217
1937 1 0.198166 0.19871 0.0482816 0.878219 -3.31925 0.545969 0.141403 0.236645
264 1 0.2511 0.175244 0.0226959 0.368116 -3.2465 -0.427832 0.00976622 0.118648
262 1 0.276672 0.176518 0.998606 0.458653 -3.34277 0.101104 -0.061685 -0.113092
268 1 0.301845 0.175512 0.0234424 0.332547 -3.31578 -0.159832 -0.382964 0.16362
1866 1 0.3264 0.176775 0.0501041 0.859326 -3.29502 -0.279828 -0.558988 0.144775
272 1 0.350254 0.173165 0.025012 0.639471 -3.23842 0.206522 0.373412 0.16078
1949 1 0.348627 0.200593 0.0495248 0.914149 -3.29274 0.256036 0.141081 0.335441
349 1 0.352301 0.198942 -0.000476204 0.451562 -3.27249 0.13121 0.581112 0.054216
1865 1 0.301949 0.1508 0.0486133 0.558561 -3.31579 0.140975 0.414697 0.143162
1869 1 0.349862 0.149963 0.04978 0.346331 -3.31894 -0.109665 -0.0882723 0.262202
266 1 0.328685 0.175315 1.00064 1.15141 -3.2263 -0.592133 -0.434664 -0.577286
345 1 0.302789 0.200532 0.997561 0.714371 -3.28535 -0.523973 -0.0865987 0.16874
271 1 0.375671 0.150759 0.0248584 0.52049 -3.3152 0.0365838 -0.460679 -0.0684347
276 1 0.401449 0.174157 0.0242322 0.672708 -3.32042 -0.0710055 0.22971 0.156148
351 1 0.374119 0.199286 0.0259321 0.404638 -3.31085 0.411768 -0.138313 -0.0856143
270 1 0.376164 0.174887 0.999495 0.364543 -3.20196 -0.55466 -0.503523 0.545538
275 1 0.424825 0.148429 0.0256595 0.905455 -3.27923 -0.0866958 0.223984 -0.546876
280 1 0.450007 0.173301 0.0252854 0.917093 -3.30106 0.00405854 0.505453 -0.148555
274 1 0.427336 0.173355 0.999509 1.08354 -3.27836 -0.402722 0.242794 0.200933
277 1 0.452379 0.150174 0.999736 0.732059 -3.25734 -0.39372 -0.0937802 -0.0562721
281 1 0.501436 0.149745 0.997752 0.986913 -3.29146 -0.183648 -0.0425369 0.356519
278 1 0.475509 0.175525 0.000666034 0.522645 -3.26701 -0.161022 -0.124199 -0.120129
284 1 0.499746 0.177102 0.0252386 0.821277 -3.23289 0.013543 -0.507967 0.00155763
359 1 0.475148 0.199692 0.0239885 0.546034 -3.29558 -0.292829 0.361562 0.187302
287 1 0.57517 0.151801 0.0236666 1.02503 -3.31133 -0.0711336 -0.310896 0.125074
288 1 0.548584 0.174518 0.0241975 0.414491 -3.26541 0.358267 0.134398 -0.0358801
1886 1 0.572667 0.174611 0.0507644 0.701417 -3.29335 0.711569 0.0399058 -0.1196
286 1 0.574191 0.173312 0.998263 1.07774 -3.30721 0.186371 0.319026 0.463735
365 1 0.551166 0.199827 0.99872 0.474312 -3.36325 -0.02633 0.0465453 0.0581619
292 1 0.600603 0.174462 0.0240824 0.368235 -3.30451 -0.230167 0.0928192 0.249852
1890 1 0.623551 0.175785 0.0507295 0.598504 -3.31484 0.224206 -0.323705 -0.0511359
296 1 0.650979 0.173967 0.0259032 0.631341 -3.31395 0.235725 0.39979 -0.416238
300 1 0.699908 0.17549 0.0250472 0.230743 -3.36693 0.0618295 0.0893985 0.125878
294 1 0.675541 0.175411 0.998934 0.455903 -3.33297 0.0963576 -0.0863811 0.2132
304 1 0.747938 0.176803 0.024436 1.12107 -3.25757 0.661443 -0.199466 0.0632777
379 1 0.724452 0.20225 0.0241132 0.987724 -3.27784 0.302725 -0.350504 0.478461
1898 1 0.726201 0.176025 0.0493156 0.324164 -3.3077 -0.5384 0.0891632 0.225925
383 1 0.773204 0.200672 0.0236288 1.13054 -3.25412 0.543495 -0.299785 0.31336
308 1 0.800166 0.176567 0.0237949 1.23348 -3.35993 -0.0298448 -0.245382 0.342879
302 1 0.773724 0.173487 0.998759 0.721675 -3.36002 0.0890307 0.187989 0.0976823
1902 1 0.775457 0.175195 0.0497229 0.284378 -3.2652 -0.121047 0.236005 -0.147273
307 1 0.824809 0.149972 0.0261243 0.455561 -3.2932 0.123318 0.177768 -0.0571341
387 1 0.82607 0.200122 0.0235816 0.909388 -3.23904 -0.57283 -0.122423 0.477963
312 1 0.850628 0.175441 0.0250377 0.348219 -3.31324 0.0994976 -0.358775 0.19307
310 1 0.875795 0.174517 0.00157541 0.316011 -3.36614 -0.181054 0.262259 -0.105833
306 1 0.82672 0.174351 0.00120776 0.787467 -3.31195 -0.37178 0.0265012 -0.330164
391 1 0.87576 0.199976 0.0248821 0.290806 -3.31477 -0.0261277 0.0179197 -0.0348463
389 1 0.850037 0.201215 0.000800683 0.414635 -3.21351 0.381742 -0.653596 0.0219553
315 1 0.925858 0.150618 0.0267636 0.398383 -3.30386 -0.0911174 -0.461523 -0.0867624
316 1 0.900388 0.174243 0.0271124 0.455187 -3.29469 0.22489 0.152184 -0.352684
395 1 0.925005 0.199528 0.0257779 0.242457 -3.33076 0.314351 -0.00496342 -0.0449369
1993 1 0.899576 0.200831 0.050152 0.366421 -3.32922 -0.122885 -0.009755 0.242152
313 1 0.90033 0.149938 0.00131845 0.381644 -3.26101 0.565599 -0.0670085 0.0296637
314 1 0.926585 0.173493 0.00105633 0.386413 -3.3883 -0.108435 0.18523 0.0567863
393 1 0.901998 0.199561 0.00139681 0.80401 -3.29262 -0.65545 -0.36746 0.0271483
320 1 0.949997 0.174133 0.0278116 0.943386 -3.27888 -0.149347 0.380587 -0.526635
399 1 0.976463 0.198922 0.0259003 0.27917 -3.28753 -0.149789 0.241706 -0.184934
1921 1 0.000427759 0.197876 0.0493861 0.722518 -3.29574 0.521186 0.59294 0.524213
317 1 0.950953 0.147853 0.00115166 0.563966 -3.29833 -0.0711102 0.265269 -0.244224
318 1 0.975235 0.173987 0.00238006 0.592262 -3.3093 -0.0322949 0.0919856 -0.440685
328 1 0.0522775 0.227139 0.0267556 2.33194 -3.2445 -0.591481 -0.756514 0.101486
403 1 0.0247463 0.249431 0.0250217 0.484714 -3.25902 0.221824 0.212914 0.239876
332 1 0.100805 0.225246 0.025904 0.271905 -3.25412 0.0710925 -0.443026 -0.164466
336 1 0.151539 0.224838 0.0225221 1.58385 -3.24895 0.142679 0.250996 0.670022
335 1 0.174543 0.200113 0.0248436 0.731917 -3.26531 0.000558004 -0.278438 -0.203984
1930 1 0.12562 0.22557 0.0513833 0.597048 -3.29726 -0.0623499 -0.104187 -0.392863
330 1 0.126827 0.224384 0.000778609 0.317606 -3.25805 -0.221795 -0.0246543 -0.110434
340 1 0.20058 0.222687 0.0250067 1.23842 -3.30164 -0.411619 0.393617 -0.479601
417 1 0.201643 0.249883 1.00029 0.264994 -3.31015 -0.0291374 -0.0946617 0.0976202
338 1 0.226753 0.226975 0.999616 1.2092 -3.31277 -0.0688722 -0.615745 -0.197765
343 1 0.275348 0.198932 0.0249778 0.693067 -3.25929 0.495689 0.250547 -0.467443
344 1 0.252847 0.22298 0.0247719 0.994429 -3.26323 -0.13724 0.3104 -0.0533689
1942 1 0.274053 0.222762 0.052834 1.72363 -3.2761 0.511424 0.382114 -0.539627
342 1 0.277295 0.225924 0.998873 0.445874 -3.28129 0.0558735 -0.0767164 -0.0508057
347 1 0.325147 0.199016 0.0228421 0.995222 -3.26821 0.324866 0.596441 0.56997
348 1 0.299698 0.224829 0.0232688 0.74337 -3.29757 0.102995 -0.435992 0.433392
2025 1 0.298857 0.249669 0.0508061 0.334023 -3.27053 -0.0518997 0.176998 0.0679733
352 1 0.350934 0.224548 0.0271654 1.35096 -3.3378 -0.489694 0.0495544 -0.507261
429 1 0.350209 0.2512 0.998997 0.813066 -3.30251 -0.0935345 -0.50728 0.167448
346 1 0.326829 0.224443 0.998596 0.324067 -3.35138 0.244843 0.291927 0.044534
425 1 0.303177 0.250029 0.998471 0.946175 -3.35547 -0.372495 0.0515079 -0.131878
356 1 0.397357 0.22631 0.0264498 0.923801 -3.28366 0.627307 -0.283719 -0.307133
1950 1 0.376081 0.223638 0.0512365 0.95652 -3.1899 -0.698589 0.747251 0.265547
355 1 0.424163 0.200099 0.0253724 0.402668 -3.38705 0.0707507 0.0412331 -0.0295838
357 1 0.449945 0.2005 0.000653563 0.280969 -3.28794 0.0177595 0.124336 0.239765
435 1 0.424515 0.253325 0.0256636 1.42633 -3.29362 0.0221338 -0.568654 0.00140308
1954 1 0.425941 0.224459 0.0491614 0.722282 -3.31815 -0.336027 0.160606 0.0337395
360 1 0.449996 0.22608 0.024261 0.247279 -3.3385 -0.101241 -0.147365 0.286744
363 1 0.524261 0.19997 0.0253724 0.509769 -3.17955 0.433933 -0.178333 -0.54696
364 1 0.501791 0.223579 0.0261796 1.04198 -3.23794 -0.245435 0.522849 -0.723755
362 1 0.52594 0.224799 -0.000343207 0.372545 -3.3254 -0.251212 -0.261257 0.155245
1962 1 0.525432 0.225887 0.052479 1.56063 -3.27678 0.37614 -0.435963 -0.519908
358 1 0.475065 0.22543 0.000953927 0.53438 -3.36838 0.212228 0.0578166 -0.381277
368 1 0.550868 0.221686 0.0250212 1.80357 -3.28207 -0.243132 0.630578 0.0056426
367 1 0.575659 0.199336 0.0243287 0.405003 -3.29677 0.152363 -0.340065 0.0425432
1966 1 0.573778 0.224058 0.0505032 0.552198 -3.31715 0.0838826 -0.0264441 -0.181217
371 1 0.625887 0.198009 0.0261821 1.02206 -3.2761 -0.401852 0.380264 -0.219665
372 1 0.599667 0.225109 0.0245239 0.244969 -3.32085 -0.208962 -0.224454 -0.155654
1969 1 0.598587 0.199115 0.0511958 0.33634 -3.29126 0.0723329 0.0934803 -0.425447
1970 1 0.622747 0.22486 0.0489127 0.52472 -3.36829 0.35525 -0.0548778 0.296
451 1 0.625009 0.249764 0.0240973 0.433926 -3.2848 -0.153176 -0.111652 0.0772338
376 1 0.648689 0.223743 0.0234891 0.757314 -3.2648 0.0339228 0.120259 0.38953
375 1 0.674973 0.202003 0.0254242 0.903148 -3.32293 0.0208475 -0.407 -0.104327
380 1 0.70045 0.226329 0.0262359 0.816546 -3.25574 -0.47727 0.0136282 -0.151688
455 1 0.672734 0.248017 0.0241577 1.66213 -3.28814 0.697146 0.286547 -0.121666
1974 1 0.6756 0.224893 0.0511493 0.550433 -3.32552 -0.393624 0.168813 -0.258895
1973 1 0.649953 0.199258 0.0502603 0.238237 -3.31938 -0.187435 0.345423 0.175524
453 1 0.648361 0.250074 0.99972 0.509678 -3.2793 0.51008 -0.0286714 -0.419935
384 1 0.749565 0.226003 0.0260774 0.638112 -3.29869 -0.0274677 -0.133312 -0.268577
2061 1 0.748032 0.248526 0.0498987 0.710292 -3.30744 0.582202 0.241645 -0.0357278
388 1 0.798624 0.223245 0.0253199 0.691622 -3.34421 0.187804 0.257785 -0.0341666
385 1 0.799512 0.198365 0.998865 0.655784 -3.30598 -0.277289 0.181543 0.318859
463 1 0.774614 0.248801 0.0232787 0.872342 -3.31733 0.0720316 0.156295 0.290423
1985 1 0.801222 0.197484 0.0508538 1.468 -3.32213 -0.190186 0.281843 -0.249981
465 1 0.800899 0.252163 0.999585 1.35537 -3.26057 -0.251346 -0.670342 -0.0329968
392 1 0.849482 0.225535 0.0260471 0.797505 -3.32876 0.23882 -0.0958143 -0.338999
471 1 0.875635 0.250105 0.02217 1.42641 -3.31944 -0.220115 -0.0195573 0.666205
2069 1 0.850467 0.249173 0.0478753 0.984165 -3.26738 -0.250019 0.114209 0.151168
1989 1 0.850187 0.199953 0.0478379 1.2628 -3.32223 0.0418498 -0.100759 0.742771
1990 1 0.874751 0.226323 0.051423 1.04705 -3.28378 0.190317 -0.503691 -0.223928
390 1 0.874635 0.224967 0.999832 0.335576 -3.31437 0.229683 0.0352843 0.686529
469 1 0.848091 0.249754 0.00015783 0.51688 -3.26212 0.421857 0.0577596 0.339424
396 1 0.899748 0.224226 0.0262048 0.727582 -3.25488 -0.330575 -0.0445227 -0.513322