ITEM: TIMESTEP
1500
ITEM: NUMBER OF ATOMS
32000
ITEM: BOX BOUNDS pp pp pp
4.6945771861799823e-01 8.0530542281382040e+01
-3.7090126873818008e-01 8.1370901268738280e+01
-3.6299490171091975e-01 8.1362994901710863e+01
ITEM: ATOMS id type xs ys zs c_csym c_peratom fx fy fz
8 1 0.0500956 0.0239717 0.0254285 0.216939 -3.30996 0.0554058 0.0990412 0.369816
83 1 0.0242933 0.0501438 0.0250307 0.46555 -3.31264 0.099786 -0.122812 0.685289
1602 1 0.0243536 0.0252117 0.0510125 0.329088 -3.35892 0.303295 -0.219922 -0.141488
1685 1 0.0503043 0.0482905 0.0499512 0.377536 -3.35505 -0.063918 0.0298632 0.118791
2 1 0.0263123 0.0259112 0.00272303 1.99092 -3.26234 -1.06054 -0.466345 -0.469083
81 1 0.000197422 0.0511005 0.0011641 0.772817 -3.2966 -0.274089 -0.924014 -0.399241
12 1 0.0990491 0.0231836 0.0277041 1.51845 -3.28979 0.352818 0.410028 -0.556234
87 1 0.0751403 0.0497278 0.0260214 0.305785 -3.33572 0.0912462 -0.0356784 -0.116541
1689 1 0.101584 0.0485203 0.0503967 0.687417 -3.26913 -0.387981 0.17573 -0.371901
6 1 0.0757934 0.0254641 0.00123269 1.02886 -3.29548 -0.352183 -0.754073 0.0863204
89 1 0.0993114 0.0483751 0.00123115 0.650792 -3.37073 0.669763 0.484849 -0.0484228
10 1 0.125491 0.0230064 -0.000457552 0.529759 -3.34404 -0.433789 0.203018 0.273591
16 1 0.150247 0.0241308 0.0236204 1.07192 -3.32586 -0.172878 0.161141 0.497307
91 1 0.126376 0.0502419 0.0246711 0.665544 -3.38353 -0.122538 -0.265905 -0.188133
1610 1 0.125999 0.0249222 0.0497706 0.89834 -3.30928 0.106445 -0.30258 -0.0770213
1693 1 0.149378 0.0499172 0.0522918 1.09854 -3.25747 -0.0316026 0.033411 -0.678497
11 1 0.123306 0.000466439 0.026699 1.17759 -3.34431 0.707679 -0.424461 -0.471112
93 1 0.149974 0.0486369 -0.000833487 0.440571 -3.31952 -0.0778354 0.173958 0.227942
15 1 0.176321 0.00026428 0.0249281 0.462116 -3.33999 -0.10374 -0.104069 0.326985
20 1 0.199607 0.0262379 0.025311 0.310967 -3.32526 -0.121308 -0.306507 0.20759
95 1 0.173125 0.0515421 0.0263514 1.17261 -3.35683 0.117102 -0.558771 -0.27712
1614 1 0.172354 0.0235571 0.0500804 1.6808 -3.3021 0.77153 0.468874 -0.234714
1697 1 0.199275 0.0501944 0.0487398 0.409243 -3.35274 0.0210493 0.073299 0.393391
14 1 0.174931 0.0254522 0.000529196 0.20394 -3.31644 -0.00360592 0.0221216 -0.0649118
24 1 0.250877 0.0275251 0.0245403 1.08568 -3.33601 -0.283153 -0.335322 0.371692
99 1 0.223284 0.0502777 0.0245571 0.700812 -3.33104 0.467591 0.17332 0.39723
1618 1 0.225653 0.0242689 0.0501518 0.594516 -3.32935 -0.251024 0.433027 -0.456714
1621 1 0.250598 -0.000805111 0.04946 0.550698 -3.26388 -0.0100481 0.315601 -0.0233882
1701 1 0.249093 0.052463 0.0508415 1.45958 -3.31221 0.138584 -0.675877 -0.82644
23 1 0.273748 0.000355579 0.0239331 0.82592 -3.30091 0.32286 0.0344045 0.453387
28 1 0.301005 0.0237516 0.0237632 1.02432 -3.36128 -0.380812 0.0937719 -0.0151618
103 1 0.275045 0.0509667 0.0250846 0.310402 -3.34163 0.247294 -0.0061401 0.286215
105 1 0.298197 0.0500189 8.40305e-05 0.649399 -3.34029 0.47175 0.0348597 -0.0869634
1622 1 0.274521 0.0247528 0.0486134 0.515913 -3.37846 0.200332 0.25636 -0.0196777
1705 1 0.3006 0.0486081 0.0504251 0.572109 -3.30848 -0.492369 0.376952 -0.284861
26 1 0.326266 0.0258574 -0.00303278 1.97306 -3.33305 -0.0987888 -0.086019 0.818573
32 1 0.350358 0.024358 0.0240618 0.460986 -3.34254 0.124225 0.306658 0.181093
107 1 0.323079 0.049225 0.0250211 0.928468 -3.34671 0.537091 0.109291 -0.316671
1626 1 0.323836 0.0249423 0.0506994 0.590861 -3.28395 0.465221 -0.0975062 -0.155424
1709 1 0.349498 0.0486703 0.0494812 0.529946 -3.34416 -0.160804 0.0149667 0.197324
1629 1 0.351375 -0.000442144 0.0488179 0.602625 -3.35069 -0.147706 0.12309 0.244613
36 1 0.398328 0.0245485 0.0232957 1.87454 -3.30951 0.697461 -0.0388398 0.725285
111 1 0.375836 0.0492294 0.0283302 1.71831 -3.3025 -0.327796 0.21805 -0.661873
1630 1 0.375493 0.0247872 0.0512128 0.628243 -3.35969 0.014557 -0.248155 -0.158473
1713 1 0.400508 0.0504234 0.0511017 0.262871 -3.32515 -0.0561154 0.111337 0.0492561
31 1 0.376866 -0.00182548 0.0222937 1.44144 -3.27644 -0.375072 0.371676 0.332128
1633 1 0.400253 -0.000403349 0.0487964 0.614073 -3.33668 -0.216005 0.481362 0.0894708
34 1 0.425833 0.0241007 0.00132898 1.32994 -3.35762 -0.0508248 0.497329 0.00303285
40 1 0.451409 0.0285144 0.0248593 1.77217 -3.33463 -0.271827 -0.447105 0.012423
115 1 0.425101 0.0514374 0.0256328 0.541638 -3.36113 -0.202268 -0.250138 -0.0698903
1634 1 0.424664 0.0261223 0.0512281 0.571531 -3.35201 0.145845 -0.0330901 -0.490206
1717 1 0.451737 0.0506772 0.0504194 0.380426 -3.36405 -0.195859 0.0326228 0.214851
1638 1 0.475634 0.0245951 0.0505507 0.423966 -3.30718 -0.382648 0.430325 0.0150501
37 1 0.451045 0.00106964 -0.000504093 0.563215 -3.28475 -0.331445 0.216269 0.0530497
38 1 0.475786 0.0255217 0.000411437 0.645969 -3.35733 -0.147656 0.0548479 -0.213227
44 1 0.499006 0.0236029 0.0259869 0.402153 -3.33302 0.293997 0.134735 -0.153211
119 1 0.475962 0.0516966 0.0247007 0.624343 -3.29497 0.0250391 -0.354012 -0.100163
123 1 0.52709 0.0496064 0.027346 1.73878 -3.29617 -0.726854 -0.0362756 -0.670348
1641 1 0.498313 0.00112539 0.0518575 0.937613 -3.27685 0.60622 -0.545008 -0.430416
1721 1 0.500821 0.0489038 0.0492305 0.980271 -3.35841 -0.086718 0.169154 0.370328
43 1 0.524384 -0.0018559 0.0249405 0.487467 -3.35717 -0.223429 0.301077 0.139788
1642 1 0.524904 0.0228917 0.0520116 0.618599 -3.3032 -0.354785 0.325932 -0.187733
47 1 0.572309 -0.00099853 0.0259274 0.463886 -3.33983 0.500496 0.424782 -0.137064
48 1 0.547869 0.0238933 0.0260592 0.342083 -3.33489 0.193479 -0.143053 -0.245752
127 1 0.573031 0.047765 0.0262509 1.24412 -3.29286 0.0312168 0.368325 -0.329934
1645 1 0.548573 2.82259e-05 0.0522696 0.46767 -3.30419 0.150603 -0.103191 -0.33506
1646 1 0.573676 0.0247903 0.0519637 0.379582 -3.30902 -0.00902708 -0.213558 -0.355523
1725 1 0.548769 0.0476984 0.0514512 0.585152 -3.27359 0.260052 0.422024 0.330373
52 1 0.598276 0.0242028 0.0265191 0.349024 -3.31685 -0.284002 0.0371806 -0.275026
131 1 0.623294 0.0491591 0.0258084 0.461291 -3.30393 0.336328 0.123473 -0.210817
1650 1 0.625081 0.0248819 0.0498707 0.329814 -3.31739 -0.199878 0.0319594 0.107553
1729 1 0.598036 0.0502594 0.0482572 1.53895 -3.2971 0.361321 -0.324774 0.58761
51 1 0.621996 0.00120194 0.0262547 1.72355 -3.28907 0.678099 -0.70289 -0.0741798
1649 1 0.598433 -0.000144423 0.0498603 0.200354 -3.32705 -0.0399706 -0.124019 0.217945
53 1 0.648935 -0.00103329 0.000395188 0.325054 -3.30134 0.247343 0.289015 -0.166566
56 1 0.650663 0.0232372 0.0258937 0.907399 -3.33652 -0.192651 -0.000435532 -0.0157547
135 1 0.673787 0.0501678 0.0225216 0.807476 -3.32823 0.302208 -0.258619 0.381475
1653 1 0.651199 -0.0017339 0.0496074 0.769425 -3.32411 -0.301937 0.217888 -0.0411011
1654 1 0.675043 0.0242002 0.0486915 0.304578 -3.35243 0.0254269 0.16419 0.358621
1733 1 0.648474 0.0505364 0.0497707 0.62268 -3.3556 0.509024 -0.266994 -0.127597
58 1 0.724917 0.0239085 -0.000592301 0.598307 -3.34016 -0.292724 0.516681 -0.0742245
60 1 0.697874 0.0235833 0.0233286 0.59264 -3.33303 0.0373572 0.430105 -0.161553
139 1 0.723345 0.0514723 0.0231088 1.23559 -3.35316 0.345088 -0.517628 -0.0687942
1658 1 0.72285 0.026814 0.0474061 1.66874 -3.30425 0.35068 -0.428493 0.181247
1737 1 0.698389 0.0498529 0.0481526 0.485551 -3.35233 -0.136059 0.209454 0.091036
59 1 0.722875 0.00066334 0.0238499 0.595309 -3.36988 0.359764 -0.411686 0.151196
137 1 0.699136 0.0500931 -0.00229745 0.505819 -3.33937 -0.193133 -0.224615 0.496077
64 1 0.750068 0.0254242 0.0258397 0.797792 -3.29499 -0.240196 -0.511984 -0.543655
143 1 0.775423 0.0497026 0.0261706 0.553426 -3.34834 0.351944 -0.0334405 -0.523832
1662 1 0.776308 0.0239326 0.0493554 0.497923 -3.33769 0.0187192 -0.00358512 0.174064
1741 1 0.750557 0.047721 0.0485105 1.00214 -3.25812 -0.340503 0.8872 0.325684
68 1 0.803026 0.0244238 0.02618 1.84399 -3.30565 -0.786806 0.587116 -0.155878
147 1 0.825649 0.0527133 0.0245005 2.16645 -3.30233 -0.0361827 -1.08615 0.43735
1666 1 0.825091 0.0249444 0.0517829 0.501262 -3.31465 -0.0344291 0.291046 -0.250098
1745 1 0.799798 0.0496617 0.0509491 0.316852 -3.34001 0.374889 -0.125047 -0.304037
72 1 0.849837 0.0242578 0.0258153 0.218208 -3.32836 -0.152002 0.275352 -0.034233
151 1 0.875849 0.0484887 0.0278446 0.925949 -3.34527 0.30294 0.273835 -0.769545
1669 1 0.849382 0.00133799 0.0508239 0.592817 -3.29699 0.0582774 -0.481093 0.125161
1670 1 0.874518 0.0246516 0.0519559 0.521989 -3.23401 0.481813 -0.463499 -0.180062
1749 1 0.852297 0.047996 0.050493 1.1174 -3.29069 -0.824769 0.859327 0.260365
75 1 0.926076 -0.00240857 0.0259904 0.907669 -3.34136 -0.123515 0.466332 0.183373
76 1 0.901505 0.0225649 0.026486 1.08804 -3.35344 -0.169815 0.509259 0.109926
153 1 0.901225 0.0486284 0.0012303 0.490054 -3.29632 -0.101095 0.420407 0.00705595
155 1 0.924229 0.0504071 0.0257685 0.9306 -3.36193 0.410732 -0.127645 0.091865
1673 1 0.89813 -0.00115125 0.0498629 1.17035 -3.29773 0.389515 0.0277308 0.409564
1674 1 0.927585 0.0252097 0.050299 1.37746 -3.30178 -0.860825 -0.143799 0.177338
1753 1 0.900294 0.049496 0.0516923 0.52572 -3.33831 0.368027 -0.0722048 -0.158117
4 1 0.9981 0.0262554 0.0263742 1.0927 -3.38343 0.368691 -0.332895 -0.342943
1681 1 1.00141 0.0507121 0.0528358 1.23749 -3.32977 -0.146569 -0.25689 -0.654622
80 1 0.950387 0.022842 0.0267681 0.670752 -3.31908 0.13895 0.175748 -0.651605
159 1 0.973633 0.0501559 0.0255627 0.694025 -3.30525 0.545274 -0.297375 0.0226504
1678 1 0.974917 0.0241401 0.0499948 0.448941 -3.3381 0.217789 0.00924474 0.233115
1757 1 0.950679 0.0500454 0.0502188 0.276835 -3.29968 -0.245376 -0.0858639 0.134726
78 1 0.97408 0.0234214 -0.000754334 0.604054 -3.33303 0.190208 0.256564 0.530032
157 1 0.951242 0.0487611 0.00105563 0.434123 -3.3562 -0.263846 0.272366 -0.218579
161 1 0.00239373 0.0982105 0.000331743 1.35044 -3.26871 -0.928522 0.528059 0.380079
163 1 0.0270821 0.100514 0.0254943 1.14339 -3.34562 -0.244454 -0.328889 0.0618706
1682 1 0.0270825 0.0747715 0.0501204 0.971462 -3.3694 -0.357632 -0.164101 -0.16665
1761 1 0.000100526 0.0980692 0.0492668 0.858841 -3.36283 0.0555745 0.18013 0.0368514
88 1 0.0502519 0.0736737 0.0229772 1.1381 -3.31388 0.0533323 0.0320943 0.462354
82 1 0.0233899 0.0740664 0.00234812 1.42615 -3.22427 0.697529 0.0174354 -0.648581
92 1 0.100588 0.0746238 0.0261003 0.504243 -3.364 -0.15533 0.0161196 -0.488913
167 1 0.0731446 0.0987535 0.023616 1.15213 -3.33469 0.268509 0.330961 0.321837
1686 1 0.0742576 0.0747449 0.0490091 0.421029 -3.34663 0.122069 0.0525255 0.0683647
1769 1 0.099045 0.100549 0.0497526 0.457489 -3.36888 0.144523 -0.276315 -0.0934003
169 1 0.100749 0.099429 -0.00028522 0.418078 -3.36432 0.0971818 -0.205721 0.0498517
96 1 0.15081 0.0767315 0.0249251 0.943776 -3.25034 -0.492249 -0.565853 -0.0850566
171 1 0.125537 0.0997487 0.0258622 0.385329 -3.32175 -0.462842 0.0380198 -0.31626
1690 1 0.125259 0.0731015 0.0494366 0.837632 -3.32111 -0.0362489 0.585988 0.275774
1773 1 0.149158 0.099555 0.0492441 0.328865 -3.28604 0.054982 0.205695 0.317697
90 1 0.126871 0.0755839 -0.00068326 0.764852 -3.36492 -0.535418 -0.3126 0.099731
100 1 0.198808 0.0753497 0.0249896 0.190142 -3.36003 -0.0192437 0.126995 -0.0586834
175 1 0.174398 0.100404 0.0244429 0.245852 -3.31676 0.426257 0.137714 -0.0675938
1777 1 0.197905 0.0995205 0.0505218 0.879916 -3.30437 0.332402 -0.114187 -0.440701
94 1 0.173673 0.0743598 0.000367237 0.512178 -3.35226 0.384509 0.0969537 -0.268839
177 1 0.199383 0.0991374 -0.00148692 0.670572 -3.40217 0.180313 0.180821 0.163298
104 1 0.248272 0.0754134 0.0264139 0.802247 -3.2894 0.395389 -0.176665 0.00968857
179 1 0.225259 0.100868 0.0234778 0.62773 -3.28059 -0.459571 -0.202932 0.356962
1698 1 0.223181 0.0770175 0.0500339 0.912898 -3.31288 0.245169 -0.493403 -0.222073
1781 1 0.24876 0.100393 0.0491481 0.496534 -3.3743 0.321646 0.0295662 0.378353
98 1 0.225584 0.075316 0.00187975 0.857556 -3.31448 -0.400137 -0.220754 -0.620655
102 1 0.273815 0.0763297 0.00104418 0.744457 -3.33182 0.435698 -0.07814 -0.213734
108 1 0.301202 0.0760091 0.0235217 0.941165 -3.33485 -0.355994 -0.17594 0.22096
183 1 0.273776 0.0999972 0.0253632 0.534941 -3.36972 0.213949 0.134469 0.0461631
1702 1 0.276896 0.0751816 0.0493935 1.11609 -3.317 -0.602646 -0.194609 -0.199756
1785 1 0.299552 0.0993371 0.0499795 0.367315 -3.34717 0.245832 0.357375 -0.141076
109 1 0.35024 0.0508221 0.000854237 0.749948 -3.33003 -0.352899 -0.68123 -0.0732179
112 1 0.349635 0.074819 0.0249643 0.294975 -3.32021 -0.0846423 -0.221584 0.101268
187 1 0.324515 0.100243 0.0246284 0.484835 -3.36577 0.308999 0.182906 0.198347
1706 1 0.325657 0.0740212 0.0500038 0.442162 -3.34852 -0.18388 0.306738 -0.103328
1789 1 0.351521 0.099833 0.0484369 0.828371 -3.32199 -0.543145 0.230467 0.754517
106 1 0.324751 0.0757657 -0.000954635 0.410611 -3.32351 -0.153298 -0.472712 0.0191516
189 1 0.349144 0.0981008 -0.000280738 0.656228 -3.30943 0.276154 0.367935 -0.0103757
116 1 0.399175 0.0757228 0.0275397 0.728751 -3.33086 0.204882 -0.341535 -0.375312
191 1 0.375581 0.0991598 0.025102 0.304556 -3.29107 0.0538773 0.0323981 -0.124074
1710 1 0.373319 0.075304 0.0516133 0.96716 -3.30812 0.622955 -0.095434 -0.191094
1793 1 0.400123 0.1008 0.0498715 0.417567 -3.32687 0.222088 -0.130034 0.32577
120 1 0.450308 0.0738548 0.0231451 1.29424 -3.31369 -0.032924 0.45854 0.5492
195 1 0.424712 0.0989798 0.0250889 0.65142 -3.34235 0.389577 0.242633 0.147103
197 1 0.450374 0.100388 0.00115268 0.748343 -3.36944 -0.0371304 0.0517456 -0.155518
1714 1 0.425683 0.0756822 0.0519112 0.51331 -3.33724 0.0160205 -0.238674 -0.464925
1797 1 0.451907 0.0990686 0.0509782 0.447899 -3.35138 -0.348114 0.117938 -0.46022
199 1 0.47626 0.100495 0.0259022 0.58947 -3.29516 -0.390603 -0.264314 -0.568031
124 1 0.499659 0.0753006 0.0249404 0.668188 -3.32166 0.552177 -0.110433 -0.191688
1718 1 0.47732 0.0755491 0.0501265 0.4616 -3.33816 -0.280547 -0.104627 0.170443
1722 1 0.524718 0.0740502 0.0515713 0.489925 -3.32852 0.103148 0.121682 -0.28631
1801 1 0.503326 0.100188 0.0494366 1.5355 -3.27763 -0.562213 -0.143592 0.397568
203 1 0.525562 0.0991812 0.0255677 0.305832 -3.33311 0.150216 0.0321858 -0.423716
128 1 0.551713 0.0741414 0.0249282 0.827258 -3.34506 -0.20172 0.32408 0.333165
207 1 0.575582 0.100654 0.0244323 0.170184 -3.32599 -0.116566 -0.370258 0.0626858
1726 1 0.575325 0.0751656 0.0504127 0.45125 -3.34925 -0.273664 0.169825 -0.260817
1805 1 0.548826 0.100638 0.0503224 0.617629 -3.34604 0.238553 -0.426862 -0.157771
132 1 0.601171 0.0757268 0.0250035 0.937161 -3.28883 -0.833146 -0.520235 -0.213774
209 1 0.600778 0.0994687 -0.00070623 0.387229 -3.30877 0.103953 0.396913 0.194608
211 1 0.624818 0.0971365 0.0265386 1.99285 -3.28401 0.456579 0.996033 -0.515879
1730 1 0.623424 0.0743462 0.0506915 0.624738 -3.27153 0.175355 -0.12263 0.133455
136 1 0.650067 0.0741155 0.024097 0.543005 -3.35483 -0.241151 0.0629361 0.186094
215 1 0.675229 0.0984924 0.0250848 0.546537 -3.33456 -0.14432 0.341046 0.213048
1734 1 0.67438 0.0752366 0.0501371 0.402034 -3.37292 0.229031 -0.146927 -0.15005
1813 1 0.648355 0.100739 0.0506731 1.15526 -3.28643 0.741028 -0.641995 -0.244206
213 1 0.649186 0.101096 0.000436944 0.661378 -3.36029 0.126255 -0.360896 0.210547
140 1 0.699949 0.0750979 0.0227928 0.344629 -3.31559 -0.0990498 -0.143771 0.375919
219 1 0.724128 0.0997262 0.022832 1.09685 -3.26076 0.586049 -0.43275 0.238721
1738 1 0.725168 0.0739275 0.0492662 0.387325 -3.34618 -0.228452 -0.101083 -0.201013
1817 1 0.701877 0.100121 0.0484629 0.724158 -3.34081 -0.434669 -0.454824 0.383969
138 1 0.727295 0.0756396 -0.00106956 1.28305 -3.31342 -0.360838 -0.374177 0.0934249
144 1 0.75133 0.0736145 0.0236241 0.540779 -3.36231 -0.217964 0.0659418 0.0649152
223 1 0.775362 0.0995341 0.0239102 0.343979 -3.31488 0.226035 -0.439024 -0.0242617
1742 1 0.77538 0.0745941 0.050363 0.360151 -3.31047 -0.379965 -0.0932322 -0.422634
1821 1 0.748947 0.0975678 0.047595 1.1633 -3.34665 0.398118 0.298333 0.208082
142 1 0.775814 0.0750225 -0.00146665 0.391681 -3.39079 0.0214918 -0.164851 0.0583897
221 1 0.751189 0.100102 -0.00074034 0.350023 -3.30201 -0.042657 -0.092768 0.0552004
148 1 0.801012 0.0754787 0.0256412 0.526465 -3.3372 -0.493317 -0.0630956 -0.305451
225 1 0.801321 0.0991884 -0.00116703 0.366844 -3.37225 -0.200529 0.032699 -0.0881461
227 1 0.824543 0.100498 0.0255376 0.637704 -3.27195 -0.176875 -0.257687 -0.334325
1746 1 0.825345 0.0753526 0.0491694 0.634249 -3.30179 0.00332249 -0.405065 0.554976
1825 1 0.798485 0.0986644 0.0522603 1.96175 -3.32893 0.534589 0.338537 -0.542848
152 1 0.851267 0.0743643 0.0263221 0.705143 -3.34658 0.162639 -0.0542228 -0.157172
231 1 0.874264 0.0996898 0.0264327 1.15488 -3.32409 0.368645 0.0294218 -0.267067
1750 1 0.877597 0.0756788 0.0509796 0.915874 -3.3423 -0.484499 -0.265909 0.0129847
1829 1 0.847784 0.100099 0.0496532 1.39264 -3.25046 1.06888 -0.366937 0.279519
150 1 0.876321 0.0722689 0.000969215 1.01485 -3.31545 -0.285482 0.0304477 0.117235
156 1 0.901563 0.0759691 0.0236671 1.46059 -3.32716 -0.0636435 -0.195045 0.504989
235 1 0.927821 0.0994438 0.0236885 0.991963 -3.31921 -0.207723 0.0128552 0.204309
1754 1 0.925484 0.074769 0.0511627 0.220482 -3.35885 -0.254 -0.00609105 -0.201011
1833 1 0.899593 0.100577 0.0501296 0.788738 -3.2877 0.47024 -0.350402 0.00990977
84 1 0.9982 0.0746783 0.0252452 1.15761 -3.31973 0.17957 0.0955788 0.427672
158 1 0.976467 0.0739065 -0.00108628 0.858299 -3.3321 -0.455023 0.411662 0.0293096
160 1 0.951364 0.0748199 0.0257394 0.337202 -3.32399 -0.177972 0.0498795 -0.258188
237 1 0.953214 0.100338 -0.000472163 0.699028 -3.2884 -0.709445 -0.213123 -0.289885
239 1 0.974362 0.10156 0.0237139 1.82984 -3.25224 0.716345 -0.985425 0.622252
1758 1 0.974626 0.0738715 0.0511264 0.386482 -3.32456 0.254909 0.149335 -0.0833459
1837 1 0.950031 0.098429 0.0509936 0.556617 -3.35223 0.292053 0.251153 -0.129862
162 1 0.0251052 0.125319 -2.75728e-06 0.437543 -3.31078 0.257832 -0.197096 0.407772
168 1 0.0493389 0.125692 0.026726 0.858223 -3.34742 0.618579 -0.134175 -0.540977
243 1 0.0262464 0.149942 0.0275902 1.1283 -3.30123 -0.411543 0.0936193 -0.3742
1762 1 0.0250307 0.125411 0.0502215 0.326752 -3.30606 -0.130444 -0.302837 0.452573
1845 1 0.0506684 0.150297 0.0513009 0.386732 -3.35436 -0.0592956 0.0592407 -0.00486986
1841 1 -0.00105773 0.14855 0.048924 0.858706 -3.3301 0.154602 0.148977 0.670109
172 1 0.098582 0.123667 0.0230872 1.32836 -3.34278 0.593275 0.0788231 0.232963
247 1 0.0767289 0.14925 0.0241273 1.08163 -3.3 -0.650382 0.155047 0.280334
1766 1 0.0762918 0.126036 0.0493306 1.13592 -3.29728 -0.654416 -0.589945 0.128583
1849 1 0.100638 0.147195 0.0513455 1.0483 -3.23953 -0.0216287 0.691764 -0.508872
249 1 0.099256 0.151335 0.000206988 1.26141 -3.31188 0.567114 -0.430478 -0.226902
176 1 0.149655 0.124824 0.0246047 0.389266 -3.34355 0.381426 0.299759 0.123891
251 1 0.125071 0.149427 0.0236818 0.854012 -3.34842 -0.050232 -0.349554 0.411088
1853 1 0.150503 0.150119 0.0497334 0.372306 -3.32952 0.433872 -0.598582 -0.116049
170 1 0.127367 0.124494 -0.000445119 0.975052 -3.30944 -0.602767 0.168038 0.104671
174 1 0.176703 0.12585 -0.00121286 0.461199 -3.34998 -0.490119 -0.112341 0.276713
180 1 0.202119 0.124814 0.0232147 0.542444 -3.30908 -0.420626 -0.281324 0.136262
255 1 0.178487 0.149001 0.0244212 1.16959 -3.3691 -0.639197 0.203114 0.133611
257 1 0.202736 0.149453 -0.0012086 0.698391 -3.34788 -0.430684 0.31607 0.156913
1774 1 0.176036 0.123672 0.048961 0.435657 -3.33989 -0.337976 0.733861 -0.15249
184 1 0.248817 0.125073 0.0233682 0.72419 -3.28904 0.525938 -0.135954 0.578119
259 1 0.225545 0.148555 0.0245732 0.420488 -3.27153 0.0497994 0.552544 -0.017827
1778 1 0.224223 0.124172 0.0495214 0.321376 -3.3325 0.274348 -0.0864054 0.0614663
1861 1 0.249275 0.149074 0.0504664 0.246901 -3.36677 0.107216 0.176549 -0.0947298
182 1 0.275554 0.125641 0.0011154 0.591557 -3.29262 -0.476864 -0.272726 -0.297504
188 1 0.299329 0.123257 0.0235611 1.21007 -3.31849 0.452925 0.348112 0.626739
263 1 0.274913 0.148614 0.0258668 0.481513 -3.32688 -0.175879 0.174624 -0.0198572
1782 1 0.274784 0.12465 0.0523823 1.18588 -3.34143 -0.270964 -0.0654443 -0.720935
1865 1 0.300237 0.149227 0.0482899 0.910869 -3.29245 -0.27017 -0.0327696 0.440466
186 1 0.326523 0.125384 -0.000875394 0.600798 -3.34515 -0.101683 -0.153249 0.431778
192 1 0.352625 0.123336 0.0257924 1.3183 -3.3114 -0.717086 0.448158 -0.256835
267 1 0.326302 0.150463 0.0252287 0.488674 -3.33608 -0.0817046 -0.234779 -0.374185
1786 1 0.325259 0.127101 0.049496 1.34638 -3.27063 -0.0577091 -1.20718 -0.497355
1869 1 0.351174 0.148159 0.0502461 0.77043 -3.28254 -0.00592977 0.598208 -0.0574027
190 1 0.374435 0.123915 0.000407416 0.409564 -3.30326 0.281851 0.235434 0.0328076
196 1 0.401987 0.125685 0.0234124 1.28269 -3.33354 -0.450966 0.107627 0.657021
271 1 0.374144 0.15076 0.0259184 0.496699 -3.35063 0.468518 -0.0987591 -0.284503
1790 1 0.377796 0.125115 0.0503808 0.681798 -3.34461 -0.262613 -0.00110677 -0.141256
1873 1 0.400317 0.150991 0.0506006 0.122962 -3.36127 0.100029 0.147874 -0.0384612
200 1 0.450218 0.127262 0.0248374 1.01987 -3.33995 -0.0885201 -0.793353 0.0734443
275 1 0.42603 0.152654 0.0266411 0.769031 -3.31188 -0.268382 -0.490485 0.194125
1794 1 0.425675 0.125586 0.0499891 0.168941 -3.37203 0.0599998 -0.15231 -0.00704577
1877 1 0.450898 0.149191 0.0506353 0.951738 -3.35611 0.128307 0.313819 0.115181
279 1 0.474406 0.150888 0.0250766 0.443562 -3.30143 0.299732 -0.126578 0.236455
204 1 0.498452 0.125022 0.024433 0.801661 -3.34077 0.616137 0.175875 -0.112763
283 1 0.525158 0.149022 0.0240132 0.297814 -3.35831 -0.152628 0.0646595 0.154053
1798 1 0.476446 0.123221 0.0492662 1.36735 -3.28206 -0.255682 0.740676 0.425332
1881 1 0.499121 0.150761 0.0509627 0.837878 -3.36117 0.0137546 -0.408891 -0.381976
1802 1 0.524758 0.125178 0.0510886 0.523511 -3.2965 -0.0202148 0.286625 -0.577357
202 1 0.525329 0.124984 0.000317796 0.339939 -3.32275 -0.100704 0.0937986 -0.109709
208 1 0.54999 0.124302 0.0241136 0.160555 -3.36604 0.112934 0.0675033 0.108415
287 1 0.574596 0.149931 0.0239634 0.476031 -3.32736 0.302741 -0.401397 0.396136
1806 1 0.576228 0.122473 0.0488436 1.43499 -3.3133 -0.484196 0.809588 0.216621
1885 1 0.54922 0.149221 0.0483456 0.684744 -3.31724 0.469324 -0.268958 0.204859
285 1 0.551086 0.149826 -0.00164997 0.675357 -3.33328 -0.176748 -0.27102 0.274288
212 1 0.60087 0.124348 0.0249131 0.239717 -3.35139 0.0994987 0.0282878 0.106996
289 1 0.599324 0.14841 3.33576e-05 0.788022 -3.32188 0.378838 0.475675 -0.251783
291 1 0.626166 0.147979 0.023241 0.958457 -3.36391 -0.233904 0.431295 0.343517
1810 1 0.627472 0.125208 0.050096 0.989509 -3.255 -0.975836 0.0689556 -0.46085
1889 1 0.600026 0.150452 0.0485756 0.68543 -3.35789 0.135667 -0.58495 -0.12098
210 1 0.624425 0.124133 3.64717e-05 0.488851 -3.31764 0.133641 -0.0378081 0.0241266
214 1 0.675835 0.124578 0.00210981 0.722744 -3.34462 -0.0942768 0.166509 -0.354342
216 1 0.652138 0.125281 0.0254119 0.843584 -3.32291 -0.391944 -0.323793 -0.102285
295 1 0.676697 0.149917 0.0270458 1.19266 -3.34339 0.0717975 -0.145205 -0.515779
1814 1 0.675399 0.123287 0.0510039 0.882373 -3.36357 0.352614 0.224332 -0.178275
1893 1 0.650766 0.14987 0.0488421 0.280512 -3.3044 -0.0373192 0.377889 0.0252791
220 1 0.701798 0.12432 0.0242439 0.353154 -3.30815 -0.445258 0.240606 0.192008
299 1 0.72606 0.150245 0.0251474 0.29772 -3.31418 0.336175 -0.330778 -0.167803
1818 1 0.726657 0.122657 0.0490032 0.695866 -3.29826 0.0458082 0.431688 -0.237306
1897 1 0.702953 0.148534 0.0489963 0.795226 -3.30826 -0.594186 -0.00694845 0.426019
224 1 0.752956 0.124543 0.0232566 0.867925 -3.3361 -0.504063 0.258174 0.228002
303 1 0.777311 0.150189 0.0248879 0.457405 -3.32358 -0.082383 0.161335 -0.086029
1822 1 0.775837 0.122916 0.047892 0.794713 -3.29454 0.192011 0.274824 0.314202
1901 1 0.75265 0.149891 0.0485029 0.509165 -3.29856 -0.541765 -0.138467 -0.175388
222 1 0.77659 0.126465 -0.000994655 0.682791 -3.29535 -0.425344 -0.238617 -0.529245
301 1 0.750175 0.151428 -0.000885346 0.989803 -3.3297 0.272121 -0.819231 0.354692
228 1 0.79858 0.124466 0.0223283 2.13272 -3.24279 0.789241 -0.178707 0.965895
307 1 0.826368 0.150011 0.0248506 0.254003 -3.35161 0.0768865 -0.0429454 -0.0942128
1826 1 0.827044 0.124906 0.0487788 1.15929 -3.2899 -0.942071 0.396408 0.243244
1905 1 0.801221 0.150239 0.0497329 0.369471 -3.39155 -0.0793065 -0.401429 -0.037398
230 1 0.876194 0.126167 0.0020092 1.67627 -3.27836 -0.0653891 -0.869921 -0.323899
232 1 0.849316 0.123766 0.0242509 0.796882 -3.29956 0.577692 0.338626 -0.0573724
311 1 0.876292 0.150014 0.022893 0.950929 -3.25449 0.0219261 -0.249402 1.11632
1830 1 0.874786 0.125182 0.0487685 0.562208 -3.36296 -0.0674811 -0.00927212 0.00739829
1909 1 0.851492 0.151451 0.0502755 1.08536 -3.28648 -0.0158843 -0.66565 -0.326617
234 1 0.925702 0.125699 -0.000107182 0.524368 -3.38458 0.218924 -0.144009 -0.00409807
236 1 0.903943 0.123047 0.0257983 3.05522 -3.3301 -0.675113 0.539762 -0.279194
315 1 0.92514 0.153737 0.0239928 3.1485 -3.26572 0.333226 -1.19797 0.280636
1834 1 0.926503 0.123774 0.0504307 0.611226 -3.33258 0.114532 0.179158 -0.103904
1913 1 0.900377 0.149298 0.050506 0.514122 -3.35686 0.00666458 -0.0365164 -0.361706
313 1 0.900837 0.149358 -0.00062763 0.617116 -3.27639 0.14351 -0.153685 0.0446154
164 1 1.00086 0.123485 0.0260128 0.565231 -3.3242 0.149204 0.0498655 -0.250883
238 1 0.97756 0.124582 0.000286645 0.465201 -3.27927 -0.199104 0.279707 -0.256814
240 1 0.952104 0.124729 0.0236284 0.689721 -3.29967 -0.732096 0.600461 0.180016
317 1 0.951261 0.15229 -0.00113042 1.21331 -3.29326 -0.329494 -1.06747 0.611385
319 1 0.977034 0.149496 0.0234559 0.69995 -3.2987 -0.549237 -0.152935 0.224234
1838 1 0.975187 0.123916 0.0498431 0.44558 -3.30945 -0.336531 -0.050409 -0.0911649
1917 1 0.950332 0.14893 0.0479729 1.12044 -3.35935 -0.218785 -0.0158909 0.145568
241 1 1.00166 0.148413 0.000302385 0.394317 -3.33302 -0.0642662 0.315281 0.0250173
242 1 0.0246636 0.172993 0.00183552 0.534319 -3.29367 -0.112361 0.293278 -0.209862
248 1 0.0484 0.175213 0.0259975 0.537158 -3.35993 0.546414 -0.11734 0.245504
323 1 0.0228661 0.198156 0.026902 0.751957 -3.33598 0.130206 0.340874 -0.33736
1842 1 0.0226651 0.17572 0.0529553 1.65047 -3.28568 0.711825 -0.569581 -0.545058
1921 1 -0.00110069 0.19914 0.0521397 0.517247 -3.25449 -0.000605126 -0.286677 -0.379428
1925 1 0.0486946 0.200455 0.0507129 0.487102 -3.29386 0.0771591 -0.566051 -0.0747456
325 1 0.0486586 0.198019 0.000642857 0.578477 -3.30995 0.531077 0.264428 0.321036
252 1 0.101636 0.174354 0.0277132 1.44336 -3.33985 -0.304166 -0.0250807 -0.327113
327 1 0.0743365 0.200586 0.0259097 0.54988 -3.34279 0.167377 -0.620805 -0.367287
329 1 0.10032 0.197653 0.00156851 0.81559 -3.31099 -0.527181 0.212133 0.00226205
1846 1 0.0757913 0.173918 0.0490929 0.93169 -3.3556 -0.124837 0.0749446 0.138043
1929 1 0.0988889 0.19963 0.0519877 0.824778 -3.30553 0.811555 -0.153559 -0.668783
246 1 0.0749044 0.174169 0.00121873 0.339165 -3.33486 -0.150731 0.267162 0.120124
256 1 0.150216 0.174221 0.0273344 0.7948 -3.32184 0.0486522 0.139084 -0.255004
331 1 0.124026 0.199055 0.0249084 0.712492 -3.33096 0.373754 0.0576882 0.675949
1850 1 0.124913 0.171368 0.0522179 2.18912 -3.25102 -0.21201 1.19544 -0.600015
1933 1 0.150443 0.199456 0.0506258 0.476956 -3.31224 -0.815583 -0.0055903 -0.437138
254 1 0.175256 0.17755 0.00207234 2.42575 -3.2514 0.565472 -1.13588 -0.162532
260 1 0.20162 0.173568 0.0256057 0.931496 -3.32 -0.229024 0.277764 -0.582422
335 1 0.176017 0.199975 0.0257244 0.433548 -3.29227 -0.0297025 0.114319 -0.161952
1854 1 0.17663 0.176008 0.0497637 0.565946 -3.30729 -0.155509 -0.517093 -0.0332128
1937 1 0.200263 0.200318 0.0497071 0.381031 -3.30621 0.0624151 -0.00334119 0.117916
337 1 0.201533 0.199856 0.00066658 0.637058 -3.29768 -0.544894 -0.132216 -0.0814125
264 1 0.250033 0.174334 0.0240396 0.27776 -3.36643 0.298986 0.0252666 0.196441
339 1 0.225933 0.199816 0.023556 0.215518 -3.26067 0.00458367 -0.0138844 0.292064
1858 1 0.224847 0.177177 0.0479399 1.72147 -3.29111 0.384872 -0.665513 0.815668
1941 1 0.250484 0.199021 0.0477228 0.94691 -3.35647 0.328419 0.29557 0.203574
341 1 0.250244 0.200618 -0.00257257 0.778125 -3.28134 -0.00508836 -0.158672 0.760286
268 1 0.298707 0.174029 0.0248797 0.704139 -3.34389 0.299258 0.194613 0.0127435
343 1 0.277316 0.20117 0.022582 1.74039 -3.30507 -0.762128 -0.135616 0.591881
1862 1 0.275431 0.173371 0.0513032 0.827506 -3.36455 -0.165013 0.153283 -0.166819
1945 1 0.298871 0.199305 0.0516127 1.10309 -3.33393 0.0830452 0.0382717 -0.494831
272 1 0.349334 0.175497 0.0266331 0.494281 -3.35726 -0.0272687 -0.0366217 -0.247334
347 1 0.323336 0.198453 0.0253777 1.04508 -3.37325 0.031446 0.264099 -0.122646
349 1 0.349525 0.199894 0.000728442 0.392857 -3.31754 -0.0196747 0.368652 0.2098
1866 1 0.324284 0.173787 0.050699 0.484269 -3.31139 0.207243 0.126842 -0.0947122
1949 1 0.348166 0.202384 0.0500527 1.16834 -3.26111 0.475961 -0.831408 -0.432591
276 1 0.399264 0.17607 0.0267121 0.273829 -3.32429 0.198229 -0.219078 -0.210361
351 1 0.374697 0.199434 0.026457 0.561471 -3.33189 -0.225809 0.572807 -0.227374
1870 1 0.374419 0.17565 0.0503358 0.246204 -3.31956 -0.00381205 -0.220067 0.238417
1953 1 0.3994 0.200564 0.0505406 0.291475 -3.3365 0.315297 0.273375 0.0610132
280 1 0.449262 0.17776 0.025565 0.731873 -3.27331 0.270613 -0.270618 0.18393
355 1 0.424576 0.202206 0.0254965 0.392717 -3.27433 -0.159204 -0.404762 -0.00124126
1874 1 0.425618 0.178292 0.0514498 0.961322 -3.32253 -0.390862 -0.540078 -0.321976
1957 1 0.449812 0.201918 0.0493029 0.600829 -3.30051 0.14789 -0.293276 0.26352
1878 1 0.474603 0.175851 0.0487636 0.759446 -3.33537 0.00399021 -0.185041 0.53152
284 1 0.502203 0.176227 0.0257976 1.08225 -3.31698 -0.517022 -0.473184 -0.168591
359 1 0.476389 0.198977 0.0262525 1.01584 -3.31671 -0.0698308 0.568168 -0.344649
361 1 0.501421 0.20039 0.0012732 0.631715 -3.37526 -0.134071 -0.160635 -0.274715
363 1 0.526965 0.198356 0.026244 0.919734 -3.28592 -0.326856 0.38651 -0.418217
1882 1 0.525386 0.173181 0.0496416 0.733672 -3.29854 0.163876 0.35864 0.0580791
1961 1 0.501082 0.201319 0.0520097 1.36434 -3.24946 -0.451925 -0.371577 -0.702338