ITEM: TIMESTEP
18000
ITEM: NUMBER OF ATOMS
32000
ITEM: BOX BOUNDS pp pp pp
7.1750815525550884e+00 7.3824918447444958e+01
-3.6082974507691432e+00 8.4608297450769300e+01
-5.4027283974427149e+00 8.6402728397442303e+01
ITEM: ATOMS id type xs ys zs c_csym c_peratom fx fy fz
4 1 0.00855119 0.0389433 0.0334195 7.15805 -3.1824 0.383868 -0.4966 -0.00197022
8 1 0.0477033 0.0309914 0.0297393 0.479712 -3.2896 0.357484 -0.259788 0.215416
2 1 0.0236781 0.0273479 0.0042168 1.37836 -3.34889 -0.558582 0.126874 -0.204169
85 1 0.0506064 0.0522615 0.00825723 3.16448 -3.28054 -0.667412 0.400746 -0.321173
12 1 0.0897136 0.0251918 0.0254967 0.288978 -3.35441 -0.13252 0.207301 0.1155
91 1 0.114147 0.0523174 0.029405 1.77279 -3.18503 0.344013 -1.04754 0.129412
6 1 0.0642269 0.0231367 0.00151611 0.756898 -3.28975 0.101527 -0.0313424 -0.298634
89 1 0.0899933 0.0478521 0.00249582 0.541925 -3.22884 -0.500259 -0.662987 -0.00784098
16 1 0.131674 0.022026 0.0230298 1.39092 -3.33461 0.089201 -0.516097 -0.360597
1614 1 0.157014 0.0204619 0.0470126 1.31375 -3.347 0.081395 0.527486 -0.309109
95 1 0.156487 0.0466226 0.0249986 1.1462 -3.31184 0.577221 -0.403677 -0.394375
20 1 0.173758 0.0139083 0.017574 0.559622 -3.32499 -0.438704 0.414023 -0.112998
99 1 0.199069 0.0397725 0.0201824 0.244339 -3.32325 0.0379036 -0.114966 -0.129609
24 1 0.213446 0.00814704 0.014678 7.12096 -3.28356 0.18121 0.084722 -0.289085
1618 1 0.198046 0.0181669 0.0428835 2.08068 -3.28348 -0.108106 -0.0829119 -0.551997
1701 1 0.225928 0.0440186 0.0440476 2.56153 -3.31635 0.322318 -0.344582 0.00526691
1622 1 0.243003 0.0113547 0.0366571 7.22206 -3.28614 -0.341856 -0.359564 0.304111
103 1 0.242523 0.0326921 0.015519 7.86203 -3.34555 -0.239944 0.145335 -0.141263
28 1 0.275128 0.0116384 0.0177802 0.860249 -3.3138 -0.0164343 -0.0973459 -0.114296
1705 1 0.265933 0.0373092 0.0413601 8.94779 -3.29332 0.0148012 0.0104651 0.173961
1626 1 0.295052 0.0128244 0.044543 2.5352 -3.26179 0.544114 -0.257195 -0.504356
1709 1 0.299566 0.0373731 0.0208907 0.686066 -3.30716 0.0289619 -0.382109 0.0929905
1630 1 0.327774 0.0141182 0.0245314 1.54015 -3.33945 0.105329 0.0118812 -0.281231
1713 1 0.356287 0.0372769 0.0242801 0.900713 -3.35326 -0.0182783 0.554329 -0.00336702
1711 1 0.32665 0.0379652 0.0463949 1.08639 -3.29278 -0.182125 0.0457244 -0.228104
1636 1 0.355798 0.0161188 0.0480906 1.05253 -3.32411 0.135335 -0.357911 -0.0507598
115 1 0.389282 0.0408061 0.00483627 0.658272 -3.33381 -0.48841 0.405076 -0.378843
1634 1 0.388988 0.0156588 0.0257355 1.06331 -3.22253 -0.214414 1.02403 0.369339
40 1 0.421691 0.0210603 0.00704725 0.85712 -3.26337 -0.138577 -0.231633 -0.429916
1717 1 0.414705 0.0424311 0.0268549 0.629141 -3.2701 0.270185 0.525306 0.307843
1638 1 0.449255 0.0237768 0.0293501 0.901118 -3.34008 0.565458 -0.371335 0.0271712
44 1 0.481684 0.0256174 0.00932038 0.646381 -3.32144 -0.49405 -0.5754 -0.104112
119 1 0.448803 0.0458642 0.00686743 0.40921 -3.35114 -0.0423288 0.15697 0.108323
1721 1 0.476664 0.0491637 0.030787 1.19998 -3.31618 -0.54424 -0.568596 0.0411178
1642 1 0.509151 0.0252121 0.0327048 6.70139 -3.28386 -0.150949 0.544946 0.264416
48 1 0.542331 0.0294296 0.0132694 1.00341 -3.37019 -0.238 -0.0485678 0.00477648
1645 1 0.541258 0.00596286 0.0365403 6.41186 -3.29757 -0.0722637 -0.435941 -0.012399
43 1 0.513161 0.00344472 0.0120257 0.314802 -3.23739 0.17049 0.0173484 -0.0216414
123 1 0.505952 0.0495809 0.00958964 1.2843 -3.28358 0.752097 0.114038 0.466897
52 1 0.600185 0.0326003 0.0168015 1.08852 -3.34797 -0.630263 -0.206567 0.0773428
47 1 0.57241 0.00600201 0.0159835 0.547338 -3.38167 0.159091 0.361139 -0.293835
1646 1 0.568728 0.0313549 0.0397518 1.65213 -3.2733 0.0030395 -0.45111 -0.844729
1649 1 0.59629 0.00762912 0.039994 1.03198 -3.27629 0.0313366 -0.153299 0.0667471
1650 1 0.622165 0.0306829 0.0416982 3.03996 -3.24788 0.596666 0.915876 -0.300537
51 1 0.631313 0.0101343 0.0192141 0.831481 -3.29545 -0.167653 -0.129561 0.889714
56 1 0.660086 0.0354873 0.022311 0.961641 -3.31355 -0.618327 0.0752449 0.361655
1653 1 0.65693 0.0117746 0.0445138 0.570702 -3.38643 0.179749 -0.192841 -0.0750424
55 1 0.691044 0.0147046 0.0245089 0.285772 -3.308 -0.228557 -0.197397 0.2216
54 1 0.691399 0.0372357 0.00345866 0.506122 -3.32904 -0.300208 0.340045 -0.496633
60 1 0.718408 0.0387259 0.0259787 0.611564 -3.27206 -0.296913 0.413957 0.401905
57 1 0.721623 0.0166749 0.00544994 1.00601 -3.3229 0.659758 -0.0660181 -0.364307
58 1 0.750243 0.0432735 0.00857815 1.15252 -3.23935 -0.0156252 -0.620667 -0.940172
59 1 0.750976 0.0178594 0.0280849 0.430143 -3.33184 -0.244378 0.166317 0.17785
64 1 0.776928 0.0426703 0.0299984 0.620367 -3.27796 -0.135336 0.347199 0.919469
61 1 0.781904 0.0214996 0.00873021 0.402388 -3.25918 0.0219741 -0.410099 -0.180186
63 1 0.808648 0.0226193 0.033975 0.557638 -3.28967 0.481537 0.208915 -0.047622
62 1 0.8059 0.0450166 0.0107072 1.57292 -3.24495 0.816081 0.813066 -0.0504871
68 1 0.83409 0.0489511 0.0342155 0.914459 -3.28813 0.324064 0.0128194 0.3365
65 1 0.84063 0.0281842 0.0131877 0.967897 -3.31565 0.265107 -0.499805 0.00801047
66 1 0.868804 0.0518492 0.0170195 0.996863 -3.29349 0.0922747 0.123903 -0.681183
67 1 0.868706 0.0285454 0.0358028 7.82968 -3.33914 0.018108 -0.36225 0.427399
1586 1 0.876754 0.00541005 0.0155291 7.08562 -3.30288 -0.403315 0.153712 -0.306004
69 1 0.902197 0.0308364 0.0172459 7.75905 -3.30784 -0.111333 -0.0864652 -0.0828289
73 1 0.942814 0.0258616 0.0260725 1.76054 -3.2763 0.0243305 -0.0237091 0.105626
71 1 0.90871 0.0214331 0.0460826 0.719544 -3.34161 0.354814 0.173354 0.240555
78 1 0.977145 0.0288048 0.00397821 6.7996 -3.22945 0.641648 0.972615 -0.094828
74 1 0.973993 0.0479811 0.0278804 3.02159 -3.18445 -0.977666 0.381206 0.102912
79 1 0.982031 0.0132132 0.0321582 7.18701 -3.31241 0.0250352 0.198003 -0.511504
77 1 0.95356 0.00655506 0.00382487 7.11752 -3.20154 -0.703769 -0.509939 -0.211786
83 1 0.0334928 0.0619145 0.0382206 9.37419 -3.17828 1.20182 0.403064 -0.369951
81 1 0.00580681 0.0558554 0.00353512 5.57393 -3.35411 -0.00885795 -0.13562 0.30742
82 1 0.0313246 0.0822313 0.00893288 6.37042 -3.36415 0.00485515 -0.479508 -0.257367
158 1 0.0264311 0.0990843 0.0338655 3.73585 -3.24636 -0.33784 0.309857 -0.110263
88 1 0.0628092 0.0854612 0.0366966 7.39841 -3.31654 -0.0141512 0.128391 0.217386
87 1 0.0750415 0.055993 0.0334596 0.8768 -3.30015 -0.117392 0.0096568 -0.0234429
92 1 0.106097 0.0808029 0.0345009 2.31659 -3.17662 -1.23784 0.13255 0.542236
86 1 0.0741918 0.0779698 0.00628428 1.42491 -3.28878 -0.426433 0.0190159 0.0813254
90 1 0.113002 0.0702636 0.00743382 3.43385 -3.13491 0.882065 1.38732 -0.740091
96 1 0.144222 0.0768285 0.0301464 0.752359 -3.2635 0.371745 -0.350765 -0.344428
100 1 0.186791 0.0698924 0.0244977 0.691913 -3.31155 -0.480441 0.136436 0.0954536
94 1 0.156812 0.0665885 0.00116011 0.527781 -3.35449 0.135325 0.240824 -0.0772461
173 1 0.144397 0.097481 0.0065334 0.770211 -3.31346 -0.4351 -0.48409 0.472875
104 1 0.226639 0.0658334 0.021618 0.508644 -3.28344 0.335142 -0.251138 -0.172642
179 1 0.212605 0.0958188 0.0265712 0.479088 -3.29871 -0.131064 -0.0164483 0.00185868
183 1 0.252699 0.0921683 0.0225212 0.7966 -3.25102 -0.14284 0.0778044 -0.189582
1702 1 0.256399 0.0713069 0.0434791 8.49874 -3.29777 -0.658357 -0.341143 0.594784
1785 1 0.279404 0.0960528 0.0472217 2.493 -3.28857 0.452976 0.00145086 -0.0457018
1706 1 0.269058 0.057006 0.0176536 6.70732 -3.25477 -0.477133 0.321388 0.0227919
1712 1 0.293927 0.0612512 0.0452805 3.14067 -3.31373 0.400415 0.238271 -0.1939
1789 1 0.291206 0.0838497 0.0188944 6.80975 -3.32979 0.613205 0.0223969 0.536821
1710 1 0.325163 0.0611638 0.0209043 0.514471 -3.31704 -0.135501 0.132476 0.436778
1793 1 0.350034 0.0860766 0.0233518 0.57877 -3.2558 0.0372418 0.158111 0.0731874
116 1 0.356784 0.0629807 0.000981702 0.43375 -3.31686 -0.0381613 0.0245324 0.223207
1791 1 0.323072 0.0854311 0.0449375 5.27399 -3.25228 -1.13462 -0.424311 0.0344406
1716 1 0.351109 0.0627787 0.0451383 1.87393 -3.29686 0.345726 -0.324352 0.469405
195 1 0.381667 0.0869091 0.0055583 2.40566 -3.27546 0.316252 0.458634 -1.07072
1714 1 0.383143 0.0644549 0.026263 0.518817 -3.33978 0.0360864 -0.220923 -0.0110077
120 1 0.415723 0.0668729 0.00368094 0.887297 -3.28595 -0.0338524 0.0773358 0.664992
1797 1 0.407833 0.0914451 0.0264172 1.11064 -3.33396 0.463211 -0.0819047 0.44928
1718 1 0.44048 0.0687931 0.0286288 1.0152 -3.34098 0.375873 -0.138881 -0.251135
199 1 0.442589 0.0931189 0.00874354 1.14861 -3.3436 -0.135073 -0.138989 -0.399345
124 1 0.476424 0.0712263 0.00768635 0.586948 -3.30247 -0.480223 -0.0569151 0.138827
1801 1 0.472052 0.0936493 0.0297766 1.10171 -3.30852 -0.386182 -0.0599107 0.0746038
1725 1 0.537016 0.0508418 0.036612 1.15799 -3.27303 -0.741784 -0.107012 -0.825666
1722 1 0.502621 0.0719892 0.0336517 0.65076 -3.33365 0.515769 0.140514 -0.320563
128 1 0.53572 0.0762025 0.011416 1.27522 -3.27267 0.0923067 -0.194104 0.945631
1726 1 0.562892 0.0737122 0.0395266 2.39561 -3.24868 0.021631 0.790659 -0.762478
203 1 0.503346 0.0940302 0.00961523 1.51347 -3.26536 -0.0602553 0.843694 0.324478
1805 1 0.530588 0.097485 0.035351 0.633936 -3.37318 -0.0800107 -0.216736 -0.295414
127 1 0.567311 0.0548545 0.01431 1.00248 -3.32581 0.0473842 -0.488894 0.484265
132 1 0.593762 0.078699 0.0159447 0.873582 -3.3084 -0.0153953 0.205285 0.658001
1729 1 0.595288 0.0559779 0.0411497 1.39578 -3.26252 0.12948 -0.608027 -0.549985
1730 1 0.621274 0.0821548 0.0413403 0.989128 -3.30512 -0.0148108 -0.35807 -0.0723034
131 1 0.62567 0.0580051 0.0211337 0.79822 -3.36778 0.192749 -0.10061 -0.379845
136 1 0.652956 0.0833499 0.0218013 0.147807 -3.36077 0.0527177 -0.19566 -0.207521
135 1 0.684408 0.0605191 0.0248444 0.580676 -3.3609 0.16593 0.357215 -0.238874
1733 1 0.651629 0.0583984 0.0440487 0.444134 -3.33525 -0.144225 0.125544 -0.0103988
133 1 0.658986 0.0602449 0.00028087 0.253324 -3.34802 0.214769 -0.091633 0.329007
134 1 0.685476 0.0870162 0.00315862 0.931816 -3.31772 0.306111 -0.702998 -0.256881
140 1 0.714455 0.0861692 0.0255623 0.863136 -3.28192 -0.809652 0.0668989 0.0285997
137 1 0.718231 0.0631226 0.00491109 0.296157 -3.32465 -0.186525 0.392555 0.0422911
139 1 0.745145 0.0651349 0.027086 0.379918 -3.26506 -0.218976 0.309347 0.649343
138 1 0.743985 0.0907793 0.00689314 0.967465 -3.29794 0.288775 -0.334042 -0.647133
144 1 0.772237 0.0906118 0.0295063 0.492237 -3.26553 -0.194742 0.186456 0.0996558
141 1 0.776618 0.0671451 0.0087722 0.200504 -3.32115 0.110564 0.216964 -0.201006
143 1 0.802507 0.0694257 0.0331264 0.353965 -3.33343 0.349552 0.069907 -0.297314
142 1 0.80148 0.0926206 0.00973893 0.549949 -3.30158 0.367999 0.170131 0.108979
145 1 0.836201 0.0709587 0.0134233 0.843521 -3.34094 -0.33097 0.432952 -0.293633
148 1 0.828352 0.095262 0.0335479 0.574275 -3.34752 -0.0262217 -0.130892 0.288444
147 1 0.861948 0.0747397 0.0367535 0.632346 -3.32637 0.343948 -0.161998 -0.0237598
146 1 0.860684 0.0984121 0.0143931 0.684699 -3.26917 0.296662 -0.856057 -0.0334542
72 1 0.897095 0.0524655 0.0400496 7.96727 -3.31385 0.0553899 -0.0511193 -0.0189724
70 1 0.928982 0.0548124 0.0205743 7.14404 -3.30442 0.0537558 0.109895 0.034841
152 1 0.891215 0.0998671 0.0378586 0.813578 -3.29861 -0.631131 -0.159432 0.184163
149 1 0.896395 0.0755362 0.0183349 0.532688 -3.36882 -0.149277 0.295895 -0.417049
151 1 0.924439 0.0773456 0.0421129 7.71532 -3.3183 -0.36927 0.0302697 0.500529
153 1 0.95319 0.0815389 0.0230474 6.31117 -3.20527 0.809738 -0.315038 -0.254328
157 1 0.998925 0.0734493 0.0308383 2.51315 -3.25805 -0.388563 0.346375 -0.28889
30555 1 0.986174 0.0838094 0.00421303 8.20147 -3.24495 0.115519 0.0139939 0.0668387
30560 1 0.0133379 0.110695 0.00602609 10.0324 -3.26059 0.377151 -0.106258 -0.0233306
161 1 0.0506263 0.125087 0.0370422 6.92359 -3.27266 -0.0593768 0.177638 -0.299043
30639 1 0.0399726 0.135216 0.00850137 8.58313 -3.30672 0.114635 0.212861 0.0173999
237 1 0.00674336 0.130578 0.0273942 6.55086 -3.2988 0.505079 0.580757 -0.0249271
165 1 0.0585026 0.107824 0.00992481 5.89616 -3.31946 -0.16241 -0.422544 0.188582
167 1 0.0881419 0.110518 0.0381528 5.70024 -3.28193 -0.189191 0.0835554 0.312537
166 1 0.0848479 0.131187 0.0139987 5.16786 -3.33332 -0.406359 0.157259 0.166095
169 1 0.101133 0.100682 0.0114409 1.32392 -3.31362 0.048965 0.299239 -0.328939
172 1 0.110078 0.138409 0.0416222 5.35365 -3.37639 0.0926424 -0.0668604 0.073828
171 1 0.12905 0.105753 0.035893 0.536967 -3.2582 0.0970334 0.167832 -0.13758
170 1 0.10333 0.122581 0.987672 2.28844 -3.32422 -0.595498 0.0634157 0.359556
162 1 0.0708512 0.152719 0.0387386 7.22045 -3.14397 0.087576 -0.557389 -0.219528
175 1 0.171138 0.0993179 0.0298921 0.949873 -3.3095 -0.121216 0.179987 0.453258
176 1 0.127307 0.12716 0.0144794 1.8084 -3.33408 0.12169 -0.192239 -0.0125356
180 1 0.172694 0.121169 0.00805082 1.0234 -3.27695 -0.679733 -0.127184 -0.306219
1774 1 0.153507 0.129443 0.0406123 2.73092 -3.24817 -0.00361845 0.702059 -1.26432
184 1 0.212868 0.115206 0.001347 1.73113 -3.29986 -0.0363552 0.597805 -0.00829699
1778 1 0.194365 0.124188 0.0322908 1.326 -3.30312 0.383688 0.252245 0.301357
1782 1 0.236323 0.122332 0.0265869 1.48016 -3.29815 0.394401 -0.800391 0.253809
188 1 0.255887 0.111757 0.999098 0.933738 -3.32045 -0.504991 0.0572073 0.0516896
1786 1 0.280989 0.115605 0.0248316 0.948194 -3.31632 -0.122212 0.284038 -0.476283
267 1 0.280326 0.138226 0.000467366 0.57898 -3.29001 -0.219524 -0.193486 0.142016
1869 1 0.307612 0.142733 0.0261992 1.28568 -3.24802 -0.00519197 -0.671245 -0.495297
1790 1 0.320794 0.111522 0.0192562 7.37354 -3.32375 -0.159806 -0.460052 0.400893
1873 1 0.347227 0.134742 0.0204521 7.85596 -3.30961 -0.22609 0.200234 -0.127224
1796 1 0.345595 0.109431 0.0460715 6.35727 -3.22505 0.515836 0.211492 -0.0420056
1794 1 0.375874 0.112679 0.0268333 1.27528 -3.26199 0.247832 -0.345097 -0.521237
275 1 0.377444 0.13696 0.000501746 0.562635 -3.26839 0.107784 -0.255483 -0.0147733
200 1 0.408162 0.115 0.0040644 0.907694 -3.34266 0.0532989 -0.467426 0.318142
1877 1 0.403528 0.137897 0.0257061 0.304472 -3.28747 0.332482 -0.263394 0.224962
1798 1 0.436861 0.115991 0.028993 0.28667 -3.30693 -0.104409 0.0842131 -0.0111759
279 1 0.436591 0.137812 0.00691246 0.929114 -3.3177 -0.037434 0.684888 -0.0613215
204 1 0.469386 0.11931 0.00827988 1.0322 -3.27126 0.379932 -0.507157 0.572017
1881 1 0.465047 0.141797 0.0311398 0.736122 -3.29918 -0.281112 -0.448992 -0.414446
283 1 0.497059 0.144367 0.011056 0.568509 -3.37665 0.0466588 -0.368694 -0.281437
1802 1 0.496284 0.117837 0.0315918 1.08118 -3.32182 0.133387 0.252237 -0.142738
208 1 0.529617 0.121985 0.014126 0.684786 -3.36151 -0.224236 0.0757899 -0.144434
1806 1 0.556967 0.124618 0.0371421 0.552377 -3.30325 -0.211744 -0.445995 0.169502
207 1 0.562108 0.101285 0.0140187 0.70676 -3.34067 -0.0265705 -0.393593 0.449462
1885 1 0.5231 0.147722 0.0340807 1.95201 -3.24704 0.0571823 -0.699011 -0.420359
1809 1 0.588539 0.100551 0.0394567 0.547849 -3.37538 -0.369045 0.157223 -0.0949457
211 1 0.620689 0.105382 0.019014 0.299236 -3.32479 -0.0977211 -0.266259 0.141419
212 1 0.586769 0.126222 0.0174981 0.609854 -3.28895 0.676028 0.0679173 0.106868
1810 1 0.615073 0.127116 0.0406817 0.215182 -3.34695 -0.0382605 0.256672 0.0143975
215 1 0.680673 0.108622 0.0230994 0.183333 -3.30563 0.118028 0.24287 0.0908436
1813 1 0.649441 0.106092 0.0416757 0.934775 -3.28973 -0.438074 0.0911792 0.449906
216 1 0.646815 0.12958 0.0201141 0.475541 -3.30977 0.635507 0.416033 0.439228
1814 1 0.673618 0.131667 0.0443566 0.164668 -3.33609 0.343812 -0.0442953 -0.253877
214 1 0.680102 0.13207 0.99945 0.8435 -3.3466 -0.0235824 0.279886 0.71492
220 1 0.706476 0.134695 0.0258771 0.567704 -3.37229 -0.123632 -0.451271 -0.0102566
217 1 0.712117 0.111598 0.00299195 0.269045 -3.34076 0.283113 0.134119 0.222682
219 1 0.740529 0.111471 0.0278798 0.533418 -3.32809 -0.209596 0.762618 -0.189797
218 1 0.739802 0.1368 0.00449472 0.420966 -3.3196 0.0771977 -0.495988 0.391947
224 1 0.765282 0.138297 0.0289418 0.37296 -3.35059 0.190843 -0.0777009 -0.0904094
221 1 0.773113 0.11597 0.00729885 0.813623 -3.3796 -0.502919 -0.0779568 -0.231759
223 1 0.795518 0.11604 0.0322133 0.71667 -3.33396 0.487891 0.10804 -0.0169607
222 1 0.799413 0.140213 0.00873333 0.639671 -3.31135 -0.59555 0.206007 0.56219
228 1 0.822484 0.14234 0.0341423 0.714038 -3.38514 0.0667499 -0.303136 -0.0243589
225 1 0.829842 0.118397 0.0130192 0.653453 -3.31421 -0.541706 0.185075 -0.228357
227 1 0.85658 0.119527 0.0349144 0.380059 -3.30629 -0.0756569 0.231636 0.523771
226 1 0.854942 0.144223 0.012758 0.8205 -3.33639 0.197851 -0.259826 0.105477
150 1 0.922225 0.1008 0.0203428 0.842789 -3.27151 -0.152072 0.409242 -0.400903
229 1 0.888987 0.121731 0.0140425 1.20554 -3.27116 0.151809 0.462616 0.589843
231 1 0.916925 0.126088 0.0393772 0.744497 -3.34559 0.0146404 -0.140753 0.227753
156 1 0.95068 0.105619 0.0429721 6.93064 -3.27357 -0.37516 -0.0278959 -0.13984
154 1 0.982475 0.105931 0.0241516 7.39664 -3.26595 -0.126181 0.0344611 -0.0530886
233 1 0.951086 0.129781 0.021151 1.88572 -3.30876 -0.350119 -0.675741 0.281352
235 1 0.97869 0.127923 0.0475699 7.45501 -3.28499 -0.55341 0.331024 0.0154178
30556 1 0.95352 0.103994 0.00148543 0.955475 -3.26053 0.378733 0.50008 0.274977
30635 1 0.980775 0.131237 0.000392518 1.55982 -3.29766 0.209183 0.0560222 0.455382
238 1 0.0318003 0.157829 0.0284919 7.8359 -3.29178 0.0452102 -0.502837 0.0130856
30640 1 0.00792301 0.156313 0.00289417 0.670826 -3.32451 -0.179087 0.0643584 0.556147
30719 1 0.0368468 0.182227 0.00471501 1.89875 -3.26463 -0.944997 -0.0257202 0.473048
317 1 0.00065526 0.176961 0.0259533 0.591731 -3.28897 0.201892 0.126108 -0.486044
30564 1 0.0649857 0.161412 0.0117893 9.43554 -3.25429 0.437927 -0.0205534 -0.308321
241 1 0.0620134 0.184151 0.032471 4.77981 -3.29211 -0.160516 -0.234492 -0.309551
245 1 0.0955761 0.186258 0.0153322 7.4834 -3.24441 -0.215306 -0.655662 -0.488748
247 1 0.102006 0.170868 0.041291 4.54748 -3.21678 0.392542 0.198957 -0.136476
249 1 0.109116 0.155687 0.0128689 5.12901 -3.23601 -0.442995 0.157329 0.722234
251 1 0.141291 0.160548 0.0444752 6.31594 -3.3043 -0.177519 0.0864936 -0.108912
256 1 0.167671 0.184712 0.0422345 3.05081 -3.3042 -0.279874 0.350103 0.217336
250 1 0.135802 0.178371 0.0189944 6.84891 -3.27511 0.309795 -0.243975 -0.387886
255 1 0.156243 0.14917 0.0144771 1.52773 -3.33628 -0.338367 -0.00291395 0.238404
253 1 0.130014 0.146423 0.990628 2.56997 -3.23258 0.466098 0.316237 -0.250837
252 1 0.127708 0.195328 0.0415194 6.5027 -3.22745 -0.060156 0.272734 0.105064
259 1 0.198197 0.144085 0.00942979 0.899198 -3.29701 0.24863 0.439624 0.10221
260 1 0.18101 0.172792 0.0161376 2.2442 -3.22339 0.52057 0.654916 -0.0483818
264 1 0.223144 0.171827 0.0115627 0.441681 -3.32859 0.245266 -0.585474 -0.215077
1861 1 0.224398 0.149266 0.0343323 0.674192 -3.25652 -0.290247 0.657566 -0.347095
1857 1 0.181718 0.154107 0.0390801 0.446647 -3.29413 0.0836158 -0.154239 0.029808
1858 1 0.20841 0.178339 0.0399026 0.712936 -3.28288 -0.112423 0.533155 -0.197829
263 1 0.238385 0.141938 0.0050451 0.463517 -3.32736 0.152336 0.360416 -0.495345
1865 1 0.265998 0.145542 0.0278375 0.812264 -3.31854 -0.0694557 0.522393 -0.0387744
268 1 0.266964 0.169285 0.00628235 1.44586 -3.36105 -0.653155 -0.393032 -0.0238132
1866 1 0.293605 0.170819 0.0294772 0.624081 -3.28764 -0.49091 0.257382 0.238132
1862 1 0.249274 0.175267 0.0343237 0.60943 -3.29611 0.258665 -0.426584 0.0255615
272 1 0.308167 0.16129 0.00242886 1.43844 -3.30517 -0.0639108 0.376598 -0.446746
1870 1 0.335182 0.167314 0.0253883 0.968135 -3.28433 -0.113365 -0.140974 -0.0912805
351 1 0.331096 0.188888 0.00355698 0.884495 -3.26584 0.10154 -0.0141053 -0.28125
276 1 0.348804 0.159146 0.996609 7.30324 -3.22966 -0.921132 -1.30752 0.164544
355 1 0.370054 0.181891 0.997957 7.11588 -3.19856 1.26487 0.779285 0.603674
1874 1 0.374583 0.158063 0.0220592 7.08017 -3.29728 -0.239997 0.821056 0.224769
280 1 0.405595 0.161166 0.00194601 0.495785 -3.32337 0.0105063 -0.170217 0.0287955
1957 1 0.402358 0.18325 0.024755 6.8141 -3.32554 -0.5191 0.308707 0.00836875
359 1 0.431988 0.186552 0.00483351 0.487682 -3.29839 0.262684 -0.198227 -0.241556
1878 1 0.432038 0.161827 0.0273654 0.312894 -3.3332 0.0273116 -0.0818309 0.244695
284 1 0.464257 0.164752 0.00732598 0.298745 -3.37437 -0.0635239 -0.0284246 -0.202178
1961 1 0.459887 0.185898 0.02972 1.03457 -3.25324 -0.662434 0.34024 -0.168101
1882 1 0.490528 0.16659 0.0319231 0.250876 -3.23437 0.0833651 -0.292046 -0.123194
363 1 0.489059 0.192078 0.00812289 2.03487 -3.28389 0.481748 -0.686675 0.0655174
287 1 0.555109 0.148361 0.0148001 0.290055 -3.32309 -0.066352 -0.127445 -0.283901
288 1 0.523356 0.170239 0.00925179 2.15699 -3.28293 -0.0451937 -0.0674891 0.84896
1886 1 0.549903 0.169969 0.0352848 0.416116 -3.28573 0.182039 0.437381 0.274012
1965 1 0.516352 0.189041 0.0332823 2.14482 -3.32663 0.240839 0.621983 0.0748809
367 1 0.551493 0.19533 0.0156023 2.51952 -3.30058 -0.299105 -0.575486 -0.318466
1889 1 0.581847 0.149674 0.0384202 0.519001 -3.3584 0.515248 -0.0406254 0.302084
291 1 0.616493 0.151809 0.0188696 0.454317 -3.35946 -0.330364 -0.0718739 0.28343
292 1 0.583759 0.172508 0.0164453 0.680929 -3.32857 -0.246394 0.204073 0.107574
1890 1 0.607941 0.17515 0.0422672 1.40897 -3.29226 0.28908 -0.624977 -0.762604
1893 1 0.642478 0.153482 0.0428033 0.380359 -3.31382 -0.438491 -0.365534 -0.28452
295 1 0.671826 0.157645 0.0212693 1.98723 -3.28729 0.677772 -1.13517 0.501336
296 1 0.641956 0.176525 0.0209487 0.602267 -3.29578 -0.582579 0.815638 -0.136385
293 1 0.646781 0.155634 0.998223 0.72768 -3.20027 0.106016 -0.625529 0.404512
294 1 0.673745 0.179041 0.00046695 0.317612 -3.2987 0.0574312 0.438617 0.0719144
299 1 0.733069 0.158009 0.0272513 0.604514 -3.34443 0.1153 0.478376 0.240384
300 1 0.700025 0.180415 0.0243156 0.377036 -3.31299 0.115432 -0.109008 0.158728
298 1 0.731717 0.183734 0.0056061 0.408631 -3.36022 0.354319 -0.274584 -0.266608
297 1 0.707139 0.155954 0.00447466 1.42125 -3.31832 -0.257533 0.530173 -0.46577
304 1 0.757742 0.184619 0.0302285 0.601058 -3.28074 0.371158 -0.21686 -0.596093
303 1 0.7913 0.164311 0.0310035 0.615183 -3.3219 0.0816354 -0.519666 -0.165008
302 1 0.792055 0.189063 0.00922764 0.869364 -3.32373 -0.41516 -0.527512 -0.0163629
301 1 0.766145 0.163225 0.00760228 0.569526 -3.36796 -0.066343 -0.190113 -0.0386303
308 1 0.816686 0.188091 0.0332297 0.947423 -3.30856 0.677996 0.0373549 0.174538
305 1 0.826622 0.16578 0.0119013 1.32681 -3.31951 -0.679685 -0.0115839 -0.0643405
307 1 0.849203 0.165949 0.0376791 1.88096 -3.29207 0.182281 0.15302 -0.609267
306 1 0.852699 0.188919 0.0130907 0.904751 -3.3321 -0.0508561 0.470963 0.220146
232 1 0.882217 0.143077 0.0357256 1.90112 -3.33488 0.11042 0.414905 0.595307
230 1 0.915836 0.147474 0.0180405 0.600372 -3.33626 -0.0637964 0.449554 -0.165304
309 1 0.881916 0.167531 0.0169968 1.56219 -3.35218 0.155583 0.248269 -0.231284
311 1 0.910166 0.171209 0.0398808 0.475638 -3.26514 0.015571 -0.207903 -0.00899412
236 1 0.941819 0.152064 0.0434874 1.24987 -3.29433 0.307965 -0.725993 -0.0132014
234 1 0.975015 0.152527 0.0248245 0.500171 -3.31976 0.507914 0.187711 -0.139479
313 1 0.942433 0.173254 0.0215268 0.315744 -3.29745 0.173688 -0.145687 -0.253001
30715 1 0.974838 0.176317 0.00165547 0.196053 -3.35178 0.136504 0.0148495 -0.0774271
242 1 0.0627124 0.205881 0.010062 0.819304 -3.23361 0.245923 -0.1062 -0.308997
318 1 0.0283133 0.202481 0.0277232 0.539618 -3.35154 -0.168842 0.0481304 0.0756716
323 1 0.0560996 0.227633 0.0301499 0.290184 -3.32433 0.401421 0.110275 0.010399
321 1 0.0318061 0.224725 0.00414427 1.15941 -3.28974 -0.561459 0.582978 0.411981
30720 1 0.00329252 0.201888 0.00325043 0.41843 -3.36805 -0.267813 -0.113973 0.143006
248 1 0.0897426 0.208353 0.0344369 4.86978 -3.27888 -0.176281 0.107551 -0.103986
246 1 0.120593 0.209375 0.0136586 7.85623 -3.2825 0.460337 0.500608 0.432413
325 1 0.0886227 0.230708 0.00886216 0.858957 -3.31323 -0.168215 -0.193051 0.465257
327 1 0.117287 0.233104 0.0347583 5.18826 -3.27491 -0.307168 -0.234736 -0.39135
329 1 0.148959 0.233045 0.0160191 8.42139 -3.23575 -0.0652494 0.253679 -0.401581
331 1 0.153787 0.218858 0.0413832 6.72931 -3.14345 -0.274578 -0.512507 -0.0276986
333 1 0.163111 0.202797 0.0164242 4.39249 -3.30426 0.0188529 -0.131683 0.109445
336 1 0.180022 0.240198 0.0421398 10.2923 -3.16525 -0.109608 0.484132 -0.524916
335 1 0.192695 0.209232 0.0458789 4.03005 -3.29178 0.356676 0.297514 -0.768857
339 1 0.207046 0.199198 0.0162272 1.89573 -3.26367 -0.596042 0.623691 0.576386
344 1 0.231971 0.227197 0.0169978 2.64348 -3.30489 -0.244248 -0.190093 -0.0243598
334 1 0.188953 0.228985 0.0127321 6.98817 -3.26493 0.595895 0.144167 0.660659
340 1 0.217553 0.235816 0.0467533 7.0967 -3.20942 0.730963 0.0230933 -0.769176
347 1 0.292095 0.193017 0.00658571 0.961709 -3.27715 -0.354004 0.24258 -0.277831
343 1 0.245804 0.198437 0.0139898 3.84129 -3.15345 0.762098 -0.182319 -0.804505
348 1 0.272514 0.222092 0.0101927 1.56457 -3.35681 0.455788 0.14065 0.17987
1945 1 0.274141 0.198786 0.0337362 2.1137 -3.25539 0.644748 0.646734 0.421126
1946 1 0.303012 0.226281 0.0365528 0.627741 -3.33024 -0.264991 -0.259632 -0.0822262
1941 1 0.235312 0.20421 0.0420584 1.54815 -3.24708 -0.486344 1.00094 -0.227171
1942 1 0.261583 0.23077 0.0411338 0.981251 -3.35051 -0.242905 -0.34089 -0.182825
1953 1 0.359783 0.191849 0.0280099 0.621558 -3.34861 0.0567582 0.195115 -0.303367
1949 1 0.316169 0.197105 0.0300618 0.682242 -3.30977 0.488502 0.24193 0.211442
352 1 0.314679 0.220442 0.00652608 2.21949 -3.27504 0.353714 -1.10676 -0.0176263
1950 1 0.345519 0.223084 0.0324308 1.19765 -3.32561 -0.412281 -0.730468 -0.0375032
356 1 0.35735 0.212467 0.00393064 0.945436 -3.33128 0.114515 0.327818 0.160402
1954 1 0.385553 0.215799 0.0301698 0.515634 -3.30627 0.117826 0.178313 -0.185775
360 1 0.398159 0.20654 0.00162395 7.9236 -3.32531 0.289017 -0.248074 -0.035022
439 1 0.426914 0.23223 0.00219372 7.90238 -3.2764 0.290296 0.291463 0.0590264
1958 1 0.427762 0.210173 0.0263616 6.74364 -3.34581 -0.182919 -0.100404 0.218573
364 1 0.456606 0.212081 0.00551095 1.53493 -3.26735 0.715087 -0.0400658 0.18645
2041 1 0.455509 0.235668 0.0266478 7.2598 -3.34663 -0.285764 -0.19588 -0.181328
1962 1 0.484721 0.211454 0.0298116 0.752536 -3.30928 0.0770291 0.37726 0.197488
443 1 0.48803 0.23805 0.00730099 1.11849 -3.28561 -0.132774 -0.325101 -0.365829
2045 1 0.512143 0.236336 0.0304139 1.89701 -3.27586 -0.104983 0.660633 0.121297
368 1 0.520099 0.213868 0.0106951 1.66149 -3.3015 -0.42589 0.46294 0.0116012
1966 1 0.544742 0.219974 0.0340828 2.2485 -3.15286 0.151755 -1.28901 -0.316917
447 1 0.546571 0.242064 0.0106496 0.768247 -3.33667 -0.710795 0.122567 -0.146694
1969 1 0.576202 0.194912 0.0387127 0.979849 -3.2972 0.33509 0.220518 0.0987032
371 1 0.608454 0.199131 0.0185936 0.414132 -3.32419 0.0736638 -0.603197 -0.4749
372 1 0.57571 0.219959 0.0139196 0.522904 -3.29939 0.358026 0.057187 -0.134322
1970 1 0.602779 0.220455 0.0377511 0.854072 -3.31925 0.21559 0.403767 0.466132
1973 1 0.637805 0.200379 0.0406541 1.04893 -3.32644 -0.609182 0.0895777 0.182866
375 1 0.669598 0.204564 0.0231936 1.22074 -3.261 -0.208184 -0.617262 -0.470974
376 1 0.635206 0.224695 0.0186195 0.781706 -3.29537 0.185506 -0.151201 0.276171
373 1 0.642113 0.202023 0.9983 0.628349 -3.37627 -0.0714324 -0.521427 -0.0483379
374 1 0.669545 0.225358 0.000944047 1.14082 -3.30361 0.0348571 0.491471 -0.102131
379 1 0.726462 0.204605 0.0274362 0.574258 -3.30262 0.175027 0.562798 -0.189351
380 1 0.697537 0.228889 0.0251264 1.4084 -3.35091 -0.267063 0.123058 -0.141236
378 1 0.726092 0.230038 0.00361149 0.49068 -3.34953 0.140375 0.09248 0.275417
377 1 0.699708 0.204327 0.00363985 0.662039 -3.301 0.346691 0.185843 -0.267087
384 1 0.753713 0.231969 0.0292963 0.66153 -3.34103 -0.0999463 -0.498927 -0.540211
381 1 0.758298 0.209992 0.00633998 0.699771 -3.35727 0.178613 -0.361294 0.496656
383 1 0.786085 0.209764 0.0314305 0.36722 -3.31839 -0.255539 0.140432 -0.325661
382 1 0.787826 0.234185 0.00729465 0.642387 -3.325 -0.350617 -0.18167 0.121454
388 1 0.810942 0.235085 0.0320066 1.35554 -3.33526 0.512897 -0.0357333 0.226672
385 1 0.821189 0.211672 0.0120386 0.905933 -3.32181 -0.202788 0.23152 -0.105891
387 1 0.848194 0.21044 0.0351979 2.18939 -3.33943 -0.331482 0.541688 -0.0203743
392 1 0.871447 0.238167 0.035477 1.77911 -3.33781 0.48684 -0.104019 0.599619
386 1 0.845808 0.236147 0.0126862 0.477548 -3.32195 0.00169924 0.0120786 -0.0619486
312 1 0.881143 0.192809 0.0364868 2.39585 -3.21549 -1.11391 -0.658617 0.431597
310 1 0.911711 0.195093 0.0199822 1.07664 -3.22402 0.000933049 0.180131 -0.597808
389 1 0.880808 0.21723 0.0148575 1.33934 -3.36295 -0.0188109 -0.374511 -0.0112553
391 1 0.904263 0.215155 0.0433263 3.75089 -3.17562 0.422968 0.838776 -1.06983
393 1 0.934821 0.221527 0.0200314 1.8155 -3.36053 0.533298 -0.469197 0.123422
316 1 0.938624 0.195569 0.042921 0.725758 -3.32064 -0.208402 0.409681 0.143968
314 1 0.968804 0.198291 0.0225531 0.416427 -3.30179 -0.118053 0.195991 -0.0226367
397 1 0.992993 0.223021 0.0255158 2.04457 -3.31187 0.978691 0.216268 -0.379885
30795 1 0.968412 0.221926 0.000959418 0.622262 -3.39145 0.0693872 0.0911793 -0.0228624
324 1 0.0253753 0.24709 0.0271748 0.934998 -3.35758 -0.493174 0.334502 -0.405299
322 1 0.0569935 0.250246 0.00536416 0.597532 -3.29793 0.173447 -0.0271279 0.515377
403 1 0.0519323 0.27463 0.0273287 0.225815 -3.34595 -0.133884 0.00859961 0.0167092
401 1 0.0263153 0.270844 0.0038761 0.776689 -3.31826 -0.504094 0.522831 0.171178
328 1 0.0835834 0.25237 0.031971 0.567906 -3.35073 -0.213751 0.0299728 -0.414776
326 1 0.11559 0.254473 0.0113848 0.838163 -3.25036 0.127562 0.42275 0.311374
405 1 0.0841386 0.276116 0.00909628 0.425623 -3.33619 0.0639581 0.255271 -0.235535
407 1 0.110892 0.278731 0.0312906 0.332264 -3.3315 0.0811222 0.0244688 0.172386
332 1 0.144817 0.257444 0.032371 7.69363 -3.29958 -0.262604 0.419738 0.682616
330 1 0.178958 0.261742 0.0180848 7.09305 -3.2817 -0.177652 -0.581832 -0.148589
409 1 0.142783 0.283208 0.0121901 1.90421 -3.22057 0.110058 -0.713161 0.497803
411 1 0.171071 0.283591 0.0384136 4.57446 -3.25571 -0.233097 0.248895 -0.504641