ITEM: TIMESTEP
4750
ITEM: NUMBER OF ATOMS
32000
ITEM: BOX BOUNDS pp pp pp
1.7902624131813645e+00 7.9209737586818676e+01
-9.1146220222820773e-01 8.1911462202228250e+01
-9.1341630990984157e-01 8.1913416309909536e+01
ITEM: ATOMS id type xs ys zs c_csym c_peratom fx fy fz
8 1 0.0495624 0.024478 0.0216185 1.64645 -3.27798 0.618709 0.367297 0.846831
83 1 0.0252453 0.0515691 0.0246372 0.614909 -3.34164 -0.221565 -0.347851 -0.142944
1602 1 0.0247285 0.0257692 0.0472383 0.900358 -3.33903 0.172528 0.315838 0.548697
1685 1 0.0523474 0.0490794 0.0465211 2.54755 -3.2954 -0.58709 -0.215857 0.681559
3 1 0.0223646 0.00252959 0.0244226 1.14521 -3.30607 0.361063 -0.60316 -0.118478
1681 1 0.999428 0.0510048 0.0503257 0.459127 -3.27135 0.297427 -0.384304 -0.308473
1605 1 0.0510605 0.00215632 0.0476965 1.71186 -3.31231 -0.406128 -0.356419 0.274946
1601 1 1.00003 1.00239 0.0506426 0.636688 -3.33607 -0.0963793 -0.588858 -0.0590302
1 1 0.998819 1.00175 0.999481 0.384016 -3.31648 0.0741232 -0.324525 -0.128238
85 1 0.0517015 0.049509 -0.00175235 0.772188 -3.27343 -0.3714 -0.0464544 0.192059
12 1 0.103101 0.0248936 0.0244087 1.00766 -3.33434 -0.656336 0.0158835 -0.0152149
87 1 0.0768034 0.0480504 0.0246188 0.992529 -3.29582 -0.161369 -0.164698 -0.183444
1689 1 0.100418 0.0498679 0.0498042 0.299691 -3.33081 0.0519469 -0.244296 -0.00464879
1606 1 0.0755522 0.0235702 0.0517359 1.82423 -3.27858 0.0788507 0.79987 -0.480832
1609 1 0.0996333 1.00124 0.0488515 1.02095 -3.28576 0.704887 -0.277426 0.240033
6 1 0.0763615 0.0245707 -0.0016089 0.471691 -3.28992 -0.186166 -0.344926 0.491179
16 1 0.151727 0.0241698 0.0224336 0.929922 -3.2994 -0.382874 0.269036 0.240053
1610 1 0.127748 0.0257806 0.0479577 0.935056 -3.29712 -0.504296 -0.0976579 0.0237666
1693 1 0.149526 0.0513343 0.050158 1.13683 -3.36065 0.650623 -0.206996 -0.12684
91 1 0.12481 0.0518119 0.0247946 1.09356 -3.31011 -0.0557998 -0.473288 -0.0563497
11 1 0.126266 0.00024187 0.0234318 0.297514 -3.33444 -0.0883417 -0.38379 0.291191
93 1 0.148748 0.0495792 1.00006 0.79274 -3.29933 0.608874 -0.312209 -0.159431
20 1 0.200618 0.0240904 0.0270382 1.74099 -3.20642 0.144597 0.353193 -1.39752
95 1 0.176219 0.0503326 0.0233775 0.513625 -3.36586 -0.0414034 -0.286715 0.168042
1614 1 0.175797 0.0256265 0.0473917 0.914367 -3.30174 -0.582902 0.225573 0.783028
1697 1 0.202181 0.0502285 0.0511177 1.03502 -3.30623 -0.51991 0.250327 -0.313276
24 1 0.252962 0.0261005 0.0247962 0.872566 -3.34614 -0.114765 -0.133455 -0.142098
99 1 0.224802 0.0495553 0.0255876 0.626391 -3.3593 0.136582 0.330711 -0.343676
1618 1 0.225943 0.0257822 0.048188 0.874855 -3.26652 0.651396 -0.0795027 0.829261
1701 1 0.251888 0.0501508 0.0490837 0.467259 -3.40483 -0.221528 0.133597 0.255858
103 1 0.275786 0.0521462 0.0231724 1.584 -3.26685 0.0762817 -0.299778 0.557345
1622 1 0.275204 0.0232762 0.0512931 1.50024 -3.21665 -0.056678 0.406018 -0.180595
1621 1 0.250649 0.000458594 0.047962 0.821697 -3.31159 -0.338998 -0.10232 0.617116
101 1 0.250708 0.0504528 1.00118 0.613966 -3.35102 -0.106787 0.107997 -0.462876
22 1 0.276575 0.0246992 -0.0013717 0.767051 -3.33383 -0.440685 0.187364 0.258976
28 1 0.297077 0.025015 0.0264373 2.84713 -3.28978 1.0905 0.206573 -0.525387
1705 1 0.300022 0.0485246 0.0498334 0.952596 -3.34687 0.171822 0.556532 -0.219974
107 1 0.325256 0.0503355 0.0244232 0.224474 -3.38119 0.195034 0.0229499 0.300845
1626 1 0.325796 0.0259898 0.0498977 0.45823 -3.36422 0.172891 0.0909194 -0.241607
27 1 0.327008 0.000172515 0.0260956 0.954644 -3.3085 -0.480329 0.207767 -0.758217
32 1 0.351021 0.0247904 0.0233847 0.51281 -3.31236 -0.196752 0.272956 0.447897
1709 1 0.351948 0.0517959 0.0500502 0.525613 -3.33526 -0.629114 -0.483231 -0.196898
111 1 0.374511 0.0497045 0.0245169 0.445676 -3.33368 0.388853 0.203536 0.0635316
1630 1 0.375983 0.0261878 0.0493816 0.253762 -3.33426 -0.159032 -0.131428 -0.0183052
109 1 0.351347 0.0500347 0.000347679 0.454375 -3.30521 -0.34144 0.159461 -0.214688
30 1 0.376323 0.0250122 0.998037 0.832656 -3.34283 0.103058 0.182979 0.278788
36 1 0.400297 0.0250715 0.0242684 0.27447 -3.3143 0.0193387 0.250893 -0.414591
1713 1 0.400621 0.0504857 0.0496849 0.266037 -3.347 -0.263255 0.447997 -0.107617
113 1 0.400866 0.0506139 7.87438e-05 0.147502 -3.34979 -0.278621 -0.124155 0.00511133
1634 1 0.423679 0.0272767 0.0485522 1.45349 -3.28419 0.677681 -0.448283 0.344917
115 1 0.426952 0.0499167 0.0242185 0.491943 -3.32491 -0.442023 0.0773672 0.139623
33 1 0.399907 -0.000109232 -0.00128679 0.614062 -3.34705 0.409539 0.506705 0.136883
40 1 0.452801 0.0262952 0.0231096 0.802253 -3.31038 -0.380715 -0.139364 0.0514123
1717 1 0.453029 0.0487891 0.047441 1.9722 -3.23263 -0.881874 0.282869 0.317233
1638 1 0.478201 0.0268819 0.0490483 1.27171 -3.22365 -0.398744 -0.768064 0.116406
44 1 0.500793 0.0260975 0.023459 0.345419 -3.28113 -0.155883 -0.208033 -0.579017
119 1 0.477749 0.0506782 0.0239995 0.686725 -3.2396 -0.480274 0.314791 -0.517367
1637 1 0.451518 0.00113789 0.0499262 0.248432 -3.34234 -0.255223 0.0246002 0.301979
39 1 0.473914 1.00071 0.0246396 0.947565 -3.27442 0.300811 0.000112808 -0.280167
37 1 0.450873 1.00005 -0.000319114 0.402003 -3.33623 -0.299846 0.257995 0.0613949
117 1 0.45145 0.0516745 0.00023413 0.305039 -3.33534 0.128421 -0.0773586 -0.315003
123 1 0.525078 0.0501052 0.0246128 0.455422 -3.30621 -0.131967 0.0537542 0.0840409
1721 1 0.498518 0.0519555 0.0486005 1.79827 -3.17198 1.25629 -0.285197 0.402129
1642 1 0.523011 0.0253185 0.0480477 1.07997 -3.31794 0.293932 0.113677 0.725632
48 1 0.549715 0.0250039 0.0269327 1.07918 -3.25665 0.0370315 0.0153817 -1.17288
1725 1 0.550254 0.0485612 0.0488477 0.566455 -3.3323 -0.263411 0.472273 0.49168
42 1 0.528219 0.023949 -0.0031984 2.47975 -3.28324 -0.934136 0.559413 0.765096
127 1 0.577131 0.049198 0.0269553 0.751548 -3.34268 -0.196275 0.0038507 -0.300055
1646 1 0.573902 0.0240974 0.0495843 0.943104 -3.23189 0.987783 0.47044 0.341931
47 1 0.575485 0.000942312 0.027101 0.794929 -3.30888 0.142636 -0.215427 -0.974796
52 1 0.602938 0.0240571 0.0265674 0.743673 -3.30947 -0.417086 0.571952 -0.0548302
1729 1 0.602893 0.0499367 0.0497579 1.37834 -3.36595 -0.321562 -0.245801 0.281048
1649 1 0.602751 1.00025 0.0496364 0.731324 -3.30611 -0.0953209 0.060676 0.470232
131 1 0.626274 0.0513366 0.0237397 1.18961 -3.29208 0.0630283 -0.41405 0.743893
1650 1 0.62718 0.0246232 0.0510933 0.509851 -3.30734 -0.57023 0.61401 -0.118071
51 1 0.626539 1.00117 0.0256092 0.21206 -3.27407 0.294008 -0.418849 -0.0699727
56 1 0.651743 0.0253626 0.0248486 0.559118 -3.36742 -0.114746 0.336841 0.195137
1653 1 0.650396 1.00141 0.0507657 0.698187 -3.27433 0.778645 -0.385061 -0.325668
1733 1 0.650737 0.0511326 0.0521159 0.798256 -3.34547 -0.0786234 -0.092765 -0.706539
135 1 0.674766 0.0525008 0.0248542 0.685747 -3.28869 -0.565161 -0.43938 -0.133059
1654 1 0.676836 0.0273776 0.0493931 0.669822 -3.35847 -0.167126 -0.298824 0.0958422
55 1 0.678416 1.00341 0.0245886 1.81436 -3.30761 -0.661597 -0.430443 -0.00351586
54 1 0.673929 0.0262783 -0.00188078 0.624594 -3.34153 0.152734 -0.182167 -0.0053292
60 1 0.6997 0.0293584 0.0234424 1.61429 -3.25566 0.0574582 -0.322542 0.144778
1737 1 0.700555 0.0515594 0.0490137 0.546341 -3.34489 0.0246572 -0.126351 0.391933
139 1 0.726515 0.0502277 0.0243675 0.718778 -3.29967 -0.25283 -0.1694 0.120522
1658 1 0.723914 0.0252522 0.0507197 1.28841 -3.31405 0.116997 0.381082 -0.836568
58 1 0.724612 0.0273605 0.998941 0.610802 -3.32115 -0.0741102 -0.292306 -0.149151
64 1 0.750853 0.0248039 0.0220004 1.34581 -3.30491 -0.139533 0.339104 0.510364
143 1 0.773934 0.0522054 0.0258079 1.41162 -3.34497 0.423258 -0.435778 -0.443657
1662 1 0.773284 0.0233027 0.0492369 1.31724 -3.3009 0.478376 0.21432 -0.347451
1741 1 0.751351 0.0486459 0.0496367 1.44407 -3.25301 -0.704451 0.304931 -0.497713
62 1 0.777053 0.0262943 0.998208 0.956109 -3.30242 -0.371155 0.0457114 0.522946
141 1 0.749677 0.0503588 -0.0012578 0.314496 -3.32778 0.416925 -0.0716335 -0.017622
61 1 0.749995 0.00231159 0.99771 0.908736 -3.33341 -0.324166 -0.558661 0.352695
68 1 0.801272 0.0249222 0.024879 0.673964 -3.3623 -0.368594 0.305315 -0.302042
147 1 0.825043 0.0503187 0.0245236 0.350943 -3.30932 -0.359356 0.00482439 -0.0377689
1666 1 0.82381 0.0265113 0.0503102 0.481133 -3.28919 -0.280583 -0.170522 0.119613
1745 1 0.798986 0.0524504 0.0505348 0.876911 -3.36065 -0.0545768 -0.515577 -0.0303015
145 1 0.799085 0.0519512 0.999577 1.16782 -3.31615 0.500083 -0.499733 0.140452
63 1 0.774497 1.00114 0.0223528 0.548714 -3.30039 0.341074 -0.174226 0.232221
66 1 0.826708 0.0253783 -0.00327598 1.58162 -3.32376 -0.451288 -0.137232 0.821166
72 1 0.849001 0.0263359 0.0256034 0.309291 -3.37537 0.0682351 -0.12143 -0.310405
151 1 0.87393 0.0521893 0.0257923 0.491319 -3.32476 0.119258 -0.518358 -0.25614
1670 1 0.873358 0.0259974 0.0511169 0.310864 -3.32714 0.0398925 0.100165 -0.372065
1749 1 0.847505 0.0496928 0.0517167 0.98893 -3.26815 0.39962 0.321821 -0.433504
149 1 0.849669 0.0515554 1.00043 0.891174 -3.29755 0.520218 -0.53288 -0.0984594
70 1 0.87779 0.0265353 0.00267528 2.25541 -3.25715 -0.98937 -0.138222 -0.654278
75 1 0.923413 1.00088 0.0272666 1.01497 -3.35825 0.182858 -0.159165 -0.400776
76 1 0.899368 0.026921 0.0256516 0.490289 -3.29268 0.485539 -0.0849589 0.479571
155 1 0.927031 0.0518642 0.0244565 0.920567 -3.35254 -0.284392 -0.409253 -0.0671522
1674 1 0.92554 0.0271089 0.0499942 0.399293 -3.35245 -0.457412 -0.134165 0.078355
1753 1 0.89898 0.0502173 0.0491037 0.489446 -3.36427 0.13488 0.238072 0.232739
4 1 0.997791 0.0273448 0.0236203 0.977248 -3.27771 0.49758 -0.179074 0.205234
80 1 0.949689 0.0254202 0.0252734 0.451168 -3.34923 0.161537 0.234357 -0.231796
159 1 0.975435 0.0513554 0.0252119 0.415631 -3.29112 -0.332049 -0.08518 -0.133711
1678 1 0.975275 0.0244299 0.049233 1.11069 -3.31826 -0.224699 0.604973 0.264302
1757 1 0.949881 0.0517365 0.0506511 0.543202 -3.27758 0.0796126 -0.479309 -0.295938
1677 1 0.950429 1.00239 0.0506429 0.576188 -3.33545 -0.215405 -0.599586 0.0131724
79 1 0.974599 1.0006 0.0237371 0.511126 -3.29356 0.0957892 0.180903 0.293914
163 1 0.0241219 0.100848 0.0234538 0.451197 -3.234 0.351565 -0.178502 0.300633
1682 1 0.0249119 0.0743541 0.0505379 1.06447 -3.29102 -0.00537017 -0.0366667 -0.399392
88 1 0.0500506 0.0740051 0.0246244 0.423703 -3.29462 0.248202 0.416541 0.160063
1765 1 0.0469699 0.101002 0.0485673 1.06507 -3.32465 0.455705 -0.278886 -0.0251238
84 1 1.00018 0.0758131 0.0234143 0.396667 -3.33451 0.0295696 0.0736826 0.228441
165 1 0.0484896 0.101321 0.999918 0.891825 -3.32293 0.566457 0.0844788 -0.30375
92 1 0.0976734 0.0742133 0.024763 0.876773 -3.29579 0.640763 0.225414 -0.185193
167 1 0.0744081 0.0993413 0.0254678 0.42668 -3.3431 -0.202183 0.247652 -0.123943
1686 1 0.0751271 0.0751004 0.0492361 0.341664 -3.30927 -0.162036 0.171202 0.108574
1769 1 0.101377 0.101477 0.0498468 1.43915 -3.34698 -0.341976 -0.340838 0.233878
86 1 0.0734723 0.073958 0.999894 0.537049 -3.33371 0.26569 0.654272 -0.254732
96 1 0.151124 0.0741305 0.0236249 0.722758 -3.29501 -0.0862301 0.331658 0.37558
171 1 0.122936 0.099461 0.0233854 1.22469 -3.27699 0.865723 -0.321527 0.257416
1690 1 0.126498 0.0757651 0.0484351 0.654751 -3.32179 -0.403454 -0.00332357 0.14463
1773 1 0.148368 0.10186 0.0489553 1.46232 -3.27771 0.551881 -0.27976 -0.168467
100 1 0.198527 0.0748416 0.0239533 0.861318 -3.31425 0.537968 -0.0147201 -0.243375
175 1 0.175308 0.0993407 0.0266046 1.43585 -3.26311 -0.271672 0.144927 -0.66235
1777 1 0.201218 0.100798 0.0483197 0.479305 -3.2713 -0.228643 -0.149708 0.340747
1694 1 0.176787 0.0755995 0.0490691 0.396201 -3.3263 -0.439493 -0.319197 0.386848
179 1 0.224052 0.100148 0.022662 0.729051 -3.28869 0.337161 -0.245436 0.391594
104 1 0.249366 0.0765962 0.0251504 0.71733 -3.33635 0.125191 -0.226188 -0.107307
1698 1 0.22506 0.0764461 0.0493462 0.497931 -3.32319 0.0545021 -0.481137 -0.130413
1781 1 0.250265 0.100299 0.0498852 0.382142 -3.25876 0.168172 -0.259488 -0.385948
181 1 0.249795 0.0988251 -0.00172506 0.884739 -3.36651 0.237019 0.433248 0.347866
183 1 0.276392 0.0999556 0.0249851 0.454899 -3.33186 -0.458288 0.430126 -0.0740892
1702 1 0.276141 0.0761188 0.0478177 0.697781 -3.30616 -0.167026 -0.258066 0.344005
102 1 0.276243 0.0762984 0.00119243 0.911018 -3.27554 -0.398643 -0.279282 -0.630798
108 1 0.301299 0.075233 0.0238074 0.351666 -3.26067 0.196429 -0.12367 0.256339
1785 1 0.300468 0.102047 0.0498092 0.677864 -3.3679 0.030105 -0.0630396 0.060383
187 1 0.325297 0.0991247 0.0252438 0.96242 -3.32475 -0.0243173 0.533004 -0.376626
1706 1 0.325144 0.0767521 0.0498149 0.486122 -3.33251 0.140338 -0.435328 0.0243756
185 1 0.299484 0.100289 0.999855 0.426365 -3.31505 0.624009 0.0234877 -0.269131
106 1 0.326378 0.0755164 -0.000990866 0.209776 -3.36234 -0.0109978 0.0803786 0.241559
112 1 0.351615 0.0770948 0.0239675 0.762613 -3.3266 -0.0542991 -0.29145 -0.0107262
1789 1 0.350186 0.100916 0.0488308 0.850214 -3.31818 0.157774 0.0809859 0.270816
191 1 0.378439 0.101449 0.0274375 2.26814 -3.3235 -0.369948 -0.163085 -0.484105
1710 1 0.374196 0.0758323 0.0500933 1.16787 -3.29584 0.756044 0.0946612 -0.20908
116 1 0.399767 0.0753339 0.0252568 0.540292 -3.36318 0.0396612 -0.185893 0.211266
1793 1 0.403969 0.100708 0.0513385 1.20388 -3.2952 -0.522264 -0.00820198 -0.197423
195 1 0.426011 0.099828 0.025283 0.284575 -3.28591 -0.335898 0.211087 -0.179617
1714 1 0.42646 0.07455 0.0494485 0.538239 -3.34123 -0.0832673 -0.37345 0.0365701
114 1 0.425077 0.0755442 0.00185046 0.552419 -3.28368 0.0080802 0.0698379 -0.577452
120 1 0.449967 0.0756176 0.0237536 0.811582 -3.31388 0.654877 0.00324808 0.556198
1797 1 0.448691 0.09979 0.0507297 0.587542 -3.31087 0.641853 0.0496586 -0.0105046
197 1 0.450503 0.101257 0.00025324 0.402207 -3.35149 -0.238643 -0.248637 -0.179059
199 1 0.475855 0.099554 0.0270728 0.735539 -3.3152 -0.606829 -0.301277 -0.251791
1718 1 0.474166 0.0727619 0.0512904 1.59707 -3.26754 -0.149762 1.3623 -0.210255
1801 1 0.499543 0.0999113 0.0512878 0.471455 -3.29352 0.178938 -0.233595 -0.066914
201 1 0.501349 0.0994271 0.00171508 0.624247 -3.30946 0.0148934 0.235686 -0.590921
124 1 0.502006 0.0766158 0.0262833 0.872847 -3.28051 -0.633081 -0.151833 -0.349309
1722 1 0.525262 0.0755357 0.0489151 0.488445 -3.30961 0.434191 -0.183246 0.495248
203 1 0.527307 0.100796 0.0256498 0.759265 -3.29217 -0.341835 0.131686 0.257383
128 1 0.551374 0.0753581 0.0264005 0.396791 -3.29272 -0.182591 -0.04348 0.144926
1805 1 0.552142 0.101184 0.0507423 0.870216 -3.36432 -0.12782 -0.248991 0.118137
207 1 0.575463 0.100215 0.0255858 0.267181 -3.26965 -0.623792 0.204983 -0.551913
1726 1 0.574244 0.0738285 0.0514308 1.28465 -3.29741 0.133974 0.185432 -0.197482
132 1 0.599753 0.0758419 0.0275399 1.0994 -3.32063 0.233777 -0.309578 -0.60272
1809 1 0.598674 0.101097 0.0478965 2.06243 -3.23102 0.703327 -0.071878 0.732085
211 1 0.62618 0.10049 0.0245159 0.495558 -3.30186 -0.333012 -0.167745 0.067358
1730 1 0.624857 0.0765418 0.0515007 0.756847 -3.30097 0.0620927 -0.134464 -0.408973
130 1 0.624988 0.0751552 0.998973 0.530561 -3.32804 0.13555 0.131431 0.316527
136 1 0.648898 0.074521 0.0259137 0.787537 -3.32754 0.341352 0.336635 -0.22245
1813 1 0.649393 0.100566 0.0490944 0.490009 -3.3531 0.225033 0.168038 0.426895
213 1 0.651102 0.098305 4.59453e-05 0.520517 -3.27206 -0.394358 0.160942 -0.0220101
215 1 0.675031 0.0992673 0.0260933 0.34308 -3.32914 -0.0469112 0.117286 -0.220815
1734 1 0.675217 0.0755414 0.050233 0.264123 -3.29971 -0.210345 -0.192824 0.0637279
140 1 0.69969 0.0743814 0.0254202 0.461638 -3.32374 0.410288 0.413877 -0.436979
1817 1 0.699828 0.0995958 0.0509882 0.471505 -3.26694 0.0191895 0.127446 -0.658372
217 1 0.697912 0.0992939 -0.000342399 0.368527 -3.36684 0.184057 0.0198117 -0.247055
219 1 0.723723 0.100334 0.0235383 0.476474 -3.35874 0.110174 -0.0324633 0.204368
1738 1 0.726722 0.0758349 0.0490006 0.670931 -3.29507 -0.538909 -0.365422 -0.0564728
144 1 0.748141 0.074496 0.02377 0.650648 -3.2848 0.438595 0.396001 -0.0788492
223 1 0.774354 0.0980473 0.0225295 1.13015 -3.33592 0.0521197 0.375908 0.439941
1742 1 0.774047 0.0764116 0.0504735 0.772812 -3.284 0.181831 -0.373721 -0.4632
1821 1 0.750226 0.0994251 0.048575 0.457161 -3.27646 0.00435893 0.525542 -0.395144
221 1 0.748149 0.0994358 -8.75348e-05 0.960837 -3.35427 0.119276 0.490076 -0.374945
142 1 0.774203 0.0754866 -0.00178229 0.401116 -3.23607 0.345216 -0.101598 0.464926
148 1 0.800422 0.0759941 0.0231039 0.572048 -3.31152 -0.0422431 -0.189739 0.430782
225 1 0.80035 0.0987064 0.998641 0.370744 -3.35504 0.198812 0.322437 -0.202654
227 1 0.825343 0.100101 0.0234293 0.498789 -3.33515 0.253371 -0.191785 0.245422
1746 1 0.824501 0.0756017 0.049342 0.468322 -3.35835 -0.0474274 0.0688312 0.316204
1825 1 0.799211 0.0995452 0.0511845 0.853775 -3.30899 0.664972 -0.0366303 -0.504678
146 1 0.82635 0.0738934 -0.00134566 0.626436 -3.31514 -0.261795 0.673628 -0.0653221
152 1 0.849479 0.0750228 0.0259723 0.46049 -3.25033 -0.226866 0.212485 -0.642928
231 1 0.875746 0.100496 0.0252306 0.262327 -3.32074 0.198864 -0.154188 -0.190521
1750 1 0.872365 0.0751342 0.0491506 1.07428 -3.2681 0.82022 -0.238872 0.629881
1829 1 0.850597 0.0990775 0.0501859 0.379158 -3.31777 -0.616806 0.690868 0.0625095
150 1 0.877654 0.0754549 0.99898 1.0343 -3.3101 -0.479262 0.359444 0.258944
229 1 0.852612 0.100045 1.00047 0.793784 -3.37168 -0.414267 -0.0740895 -0.224423
156 1 0.900035 0.0756171 0.0253476 0.534727 -3.33652 -0.0213159 -0.00571432 -0.199305
235 1 0.92565 0.0997813 0.0250033 0.578599 -3.29267 -0.162698 -0.170718 -0.409733
1754 1 0.924968 0.0746184 0.049077 0.648 -3.29766 -0.0284439 0.55971 -0.112258
1833 1 0.899105 0.0994642 0.050389 0.445307 -3.30611 0.182965 0.36362 -0.512887
233 1 0.900983 0.100839 0.996744 0.966711 -3.31341 0.266002 -0.309708 0.536786
1761 1 0.00177738 0.098054 0.0485979 1.96316 -3.30143 -0.645008 0.394339 0.289756
160 1 0.951252 0.0769097 0.0231369 1.03198 -3.3368 0.0162951 -0.118582 0.124048
239 1 0.975322 0.102013 0.0257117 1.16658 -3.2952 -0.0289826 -0.680601 -0.68388
1758 1 0.974948 0.0734098 0.0495988 0.959258 -3.29933 -0.086538 1.01528 0.0227793
1837 1 0.949627 0.101474 0.0484912 0.577624 -3.32606 0.125413 -0.45632 0.464368
237 1 0.949205 0.101584 0.998318 0.614332 -3.36576 0.226392 -0.248781 0.199577
168 1 0.0488366 0.125645 0.0247972 0.34978 -3.33408 0.35294 -0.229757 0.108719
243 1 0.0255148 0.149468 0.0257384 0.916676 -3.34851 -0.503528 0.259266 -0.035548
1762 1 0.0231532 0.124943 0.0513657 1.78199 -3.30477 -0.18632 0.41298 -0.771949
1845 1 0.0522929 0.15118 0.049734 1.62179 -3.32711 -0.302234 -0.207419 -0.108035
164 1 -0.000194525 0.124521 0.0235666 0.594517 -3.28693 0.0655457 0.534347 0.236969
172 1 0.0997067 0.123237 0.0243674 1.27252 -3.26408 -0.146488 0.810133 0.14175
247 1 0.0751496 0.149292 0.0231356 0.692814 -3.3276 -0.0242561 0.184953 0.193338
1766 1 0.0744958 0.125538 0.0497656 0.643862 -3.34895 0.0451655 -0.0984736 -0.147638
1849 1 0.0976083 0.151731 0.0483689 1.32815 -3.32088 0.160474 -0.223311 0.437032
176 1 0.151167 0.124121 0.0258819 1.18709 -3.32611 -0.447324 0.462555 -0.427526
251 1 0.124806 0.150715 0.0260797 0.590028 -3.28871 -0.0746861 -0.396187 -0.318243
1853 1 0.149009 0.151291 0.0499791 0.488656 -3.34378 0.452931 -0.258602 0.0158157
1770 1 0.123202 0.127689 0.0495777 1.3853 -3.30413 0.195903 -0.372241 0.177074
180 1 0.199428 0.12401 0.0235899 0.564983 -3.25697 0.0883949 0.269463 0.0810419
255 1 0.176152 0.150666 0.0234258 0.973648 -3.29951 -0.227338 -0.180388 0.390096
1774 1 0.176657 0.126266 0.0478553 1.19187 -3.29577 -0.541792 -0.370606 0.750235
1857 1 0.198376 0.150151 0.0501476 1.1643 -3.28677 0.8231 0.0332203 -0.315794
257 1 0.200814 0.149862 0.000358187 0.451578 -3.3423 -0.0980567 0.141194 -0.451967
184 1 0.250347 0.12711 0.0232598 1.45328 -3.30675 0.306782 -0.611832 0.339748
259 1 0.224152 0.14866 0.0248159 0.736821 -3.31477 0.0867273 0.328183 0.281111
1861 1 0.250544 0.149917 0.0509697 0.590959 -3.32125 -0.0430023 -0.0724906 -0.591407
263 1 0.274675 0.15146 0.0241248 0.474722 -3.34645 -0.133776 -0.307357 0.381018
1782 1 0.273092 0.124762 0.0497096 0.868216 -3.31964 0.403533 0.205098 -0.266231
1778 1 0.226488 0.122536 0.0489802 1.54171 -3.3062 -0.13941 1.03889 -0.044797
261 1 0.250485 0.151748 0.999443 0.512492 -3.34455 -0.143427 -0.341081 -0.202731
182 1 0.276459 0.124729 1.00011 0.654231 -3.29886 -0.786715 0.0647334 -0.354354
188 1 0.300494 0.125354 0.0230931 0.598588 -3.32261 -0.0360264 0.0869999 0.724005
1865 1 0.299657 0.149296 0.0506217 0.592368 -3.32362 -0.0877313 0.377109 -0.379033
267 1 0.324782 0.150317 0.0243503 0.217836 -3.36431 0.081616 0.135258 0.118329
1786 1 0.325736 0.127925 0.048915 1.61328 -3.30489 0.0475164 -0.754556 -0.101676
265 1 0.298574 0.149891 -0.00160361 0.716715 -3.27435 0.597298 0.0214478 0.312358
192 1 0.351521 0.123461 0.0237153 1.30273 -3.31166 -0.110401 0.394261 0.443759
1869 1 0.35109 0.150358 0.0504589 0.312637 -3.30638 -0.124811 0.20835 -0.221168
269 1 0.350038 0.149004 1.00129 0.712113 -3.35686 0.192748 0.4185 -0.404043
271 1 0.375245 0.150007 0.0253555 0.337527 -3.3423 -0.117554 0.00277971 -0.259503
1790 1 0.377181 0.126684 0.0495734 0.633376 -3.28583 -0.0163572 -0.457416 0.0124186
196 1 0.402311 0.125678 0.0262914 0.566586 -3.32751 -0.0412726 0.00504509 -0.474456
1873 1 0.400514 0.150889 0.0489767 0.472437 -3.3056 0.361619 0.0236958 0.40017
273 1 0.401604 0.149887 1.00071 0.470056 -3.28446 -0.357252 0.0788613 -0.12455
275 1 0.426954 0.150778 0.0249198 0.414516 -3.31082 -0.0675455 -0.185643 0.114277
1794 1 0.427338 0.125839 0.0500815 0.434434 -3.32876 -0.0124194 0.191783 0.28725
200 1 0.449901 0.12461 0.0246209 0.387769 -3.34386 0.252785 0.275621 0.147392
1877 1 0.451687 0.150972 0.0500491 0.464027 -3.29524 0.134567 -0.557698 0.216925
279 1 0.474039 0.151171 0.0245637 0.431446 -3.32982 0.301795 -0.649884 -0.0268916
204 1 0.498804 0.122776 0.0245165 1.31163 -3.32976 0.589852 0.94598 0.258044
1798 1 0.475218 0.12437 0.0506658 0.191545 -3.34759 -0.441463 0.166652 -0.113104
277 1 0.449098 0.151617 -0.00174873 1.12615 -3.28499 0.228309 -0.00784509 0.541529
283 1 0.525764 0.14992 0.0259679 0.377293 -3.35926 -0.454112 -0.0689387 -0.113195
1881 1 0.499774 0.149742 0.0498829 0.18361 -3.35882 -0.0549479 0.00163914 -0.368855
1802 1 0.525404 0.124164 0.0505684 0.264493 -3.35183 -0.131166 0.144705 -0.147655
208 1 0.550025 0.126595 0.0252214 0.288637 -3.35466 0.288618 -0.228221 -0.060885
1885 1 0.550705 0.149369 0.0504241 0.369716 -3.31207 -0.0404888 0.395957 -0.0473563
281 1 0.49939 0.149189 5.50526e-07 0.521994 -3.31423 0.53343 -0.0496717 0.428811
202 1 0.52526 0.124905 -0.00124467 0.845122 -3.316 -0.489951 0.457113 0.37804
287 1 0.57615 0.15031 0.0251531 0.350563 -3.36583 -0.102118 -0.00872946 -0.135558
1806 1 0.57612 0.126315 0.0505665 0.399879 -3.31244 0.222734 -0.0523882 -0.207201
212 1 0.600093 0.124628 0.0243851 0.447151 -3.32841 0.036956 0.241575 0.00391606
1889 1 0.6018 0.15138 0.050179 0.837559 -3.29272 -0.341089 -0.256782 -0.305249
291 1 0.624834 0.148031 0.0222588 2.18972 -3.31246 0.383075 0.669658 0.828265
1810 1 0.623347 0.125706 0.0510911 1.00969 -3.32733 0.425708 -0.144524 -0.443168
210 1 0.627738 0.124047 -0.000428209 0.6197 -3.33225 -0.202622 -0.197915 -0.389679
216 1 0.650046 0.12517 0.0252617 0.475625 -3.33058 0.173321 0.119596 0.442416
1893 1 0.649571 0.150986 0.0503693 0.511905 -3.31004 0.113867 -0.753488 -0.37982
293 1 0.653041 0.150047 -0.00190571 1.63201 -3.2687 -0.724558 0.0467781 0.471198
214 1 0.672043 0.123908 0.000330819 1.50587 -3.27323 0.875642 0.0354021 -0.171384
295 1 0.674666 0.151115 0.02563 0.606733 -3.31915 -0.0125691 -0.543903 -0.14395
1814 1 0.676096 0.124619 0.050885 0.45476 -3.35742 -0.519093 0.128405 -0.231622
220 1 0.699451 0.124388 0.0247352 0.226631 -3.37406 -0.122043 0.254308 0.0254713
1897 1 0.699062 0.151112 0.0496474 0.611634 -3.31538 0.620295 -0.468993 -0.0428359
297 1 0.698618 0.14942 0.00107523 0.717925 -3.31262 -0.232055 -0.226506 -0.192726
299 1 0.725982 0.150801 0.0245979 0.73134 -3.27467 -0.437569 -0.585568 0.465624
1818 1 0.725036 0.124744 0.048453 0.256411 -3.36763 -0.243802 0.0705363 0.0350759
218 1 0.723639 0.125325 -0.00090233 0.329637 -3.32327 0.309152 -0.275388 0.223219
224 1 0.752195 0.12608 0.0249459 1.62195 -3.3376 -0.515595 -0.471417 -0.516899
303 1 0.777149 0.150082 0.0245367 0.829533 -3.34169 -0.456142 -0.0575179 0.0168168
1822 1 0.775897 0.123321 0.0481852 0.754317 -3.28654 0.105018 0.445446 0.134061
1901 1 0.749104 0.148492 0.0490744 0.790701 -3.31317 0.427032 0.538151 0.0428283
222 1 0.775315 0.123213 0.998264 0.770661 -3.37237 -0.133191 0.278542 0.236387
301 1 0.748364 0.149452 1.00019 0.703463 -3.26374 0.701697 -0.228904 -0.0939439
228 1 0.801031 0.122807 0.0243859 0.806319 -3.29684 -0.569525 0.269006 -0.165324
307 1 0.824707 0.149168 0.0236649 0.522842 -3.2814 0.167417 0.426566 0.253369
1826 1 0.824639 0.125501 0.0490779 0.709098 -3.34394 0.428345 -0.542282 0.344989
226 1 0.825712 0.126574 1.00092 0.940555 -3.32891 -0.125916 -0.568321 -0.490862
305 1 0.799349 0.150918 0.999134 0.579064 -3.31509 0.272722 -0.426894 0.208499
232 1 0.851895 0.124094 0.0247548 0.495568 -3.32337 -0.184182 0.285899 -0.0694233
311 1 0.876753 0.149212 0.0237827 0.642864 -3.34634 -0.1292 0.14368 -0.25672
1830 1 0.87488 0.124677 0.0515726 0.998076 -3.26974 0.0996469 -0.0595308 -0.69424
1909 1 0.850511 0.14922 0.0481063 0.721369 -3.309 -0.162785 0.248624 0.0162662
309 1 0.85071 0.150984 -0.000242562 0.283644 -3.35307 0.146893 -0.0193602 0.0603492
230 1 0.87873 0.125184 0.998022 1.39999 -3.32812 -0.413848 0.47287 0.42481
236 1 0.902213 0.12338 0.0238292 1.43972 -3.32013 -0.464648 0.557132 0.0947306
315 1 0.924424 0.152632 0.0252692 0.813331 -3.32987 0.393578 -0.233205 -0.0365521
1834 1 0.924956 0.124213 0.0488482 0.538662 -3.30378 -0.209968 0.404788 0.0470183
1913 1 0.898527 0.149676 0.0485131 0.741624 -3.31139 0.361095 -0.0181939 0.238281
234 1 0.925336 0.12645 0.998499 0.330273 -3.32553 0.0720197 0.122467 -0.00392474
313 1 0.904228 0.153455 -3.49588e-05 2.0766 -3.26648 -0.762472 -0.378196 -0.219435
1841 1 0.998115 0.151843 0.0476095 1.53354 -3.3416 0.527342 -0.314417 0.349683
240 1 0.949672 0.12589 0.0234655 0.338767 -3.30049 -0.175083 0.285845 0.0855741
319 1 0.974281 0.150751 0.0244123 0.307122 -3.33261 -0.225408 0.063488 -0.164147
1838 1 0.975255 0.124961 0.0487779 0.471241 -3.30594 -0.234475 0.398303 0.204486
1917 1 0.94823 0.151345 0.0494888 0.392135 -3.36771 0.400272 -0.156626 -0.0640632
241 1 -0.000702828 0.149806 0.998908 0.304989 -3.34403 0.0970968 0.281736 0.0558237
238 1 0.9742 0.126293 -0.000815841 0.346358 -3.31608 0.0469515 -0.223096 0.0403808
317 1 0.949767 0.152902 0.998095 0.501842 -3.30003 -0.286153 -0.447311 0.578728
248 1 0.049126 0.174122 0.0241494 0.66507 -3.30343 0.428941 0.213934 -0.0809366
323 1 0.0261265 0.199779 0.0220912 0.845674 -3.32727 -0.484484 0.215699 0.451639
1842 1 0.0268767 0.176227 0.0487854 0.652865 -3.28882 -0.446223 0.0146002 -0.32983
244 1 -0.000308629 0.176174 0.0233284 0.382585 -3.36627 0.0651026 -0.188419 -0.028059
1925 1 0.0512746 0.202019 0.0468543 1.00191 -3.25011 -0.450273 -0.517114 0.468412
325 1 0.0506635 0.199614 0.99893 0.31921 -3.35804 0.0280251 0.177009 -0.334122
242 1 0.0252329 0.175283 -0.000777436 0.175847 -3.34168 -0.186084 -0.0629315 -0.14796
252 1 0.101519 0.174462 0.0233329 1.0546 -3.3243 -0.516551 0.679568 0.40365
327 1 0.0750692 0.200533 0.0242354 0.250625 -3.34707 0.434306 -0.185474 -0.441534
1846 1 0.0745956 0.176618 0.0491892 0.408512 -3.33743 0.150141 0.128948 -0.0276651
1929 1 0.100928 0.201803 0.0477873 0.508025 -3.33517 -0.31574 -0.115596 0.336401
256 1 0.14885 0.174416 0.0255738 1.43075 -3.29648 0.271015 0.718051 0.189091
331 1 0.127476 0.202105 0.0251515 0.818337 -3.36066 -0.290356 -0.41522 -0.263145
1850 1 0.124895 0.177683 0.0513529 1.43436 -3.22796 0.504726 -0.378718 -0.993414
1933 1 0.151887 0.20178 0.0496151 0.758111 -3.3402 -0.0303352 -0.249365 -0.234726
260 1 0.201612 0.17493 0.0265972 1.18076 -3.27011 0.27195 -0.118924 -0.421252
335 1 0.178654 0.198946 0.0231352 2.74865 -3.25855 -0.778119 0.474903 0.39333
1854 1 0.175176 0.175615 0.0485541 0.493007 -3.33583 -0.102736 0.0587319 0.218683
1937 1 0.200388 0.20085 0.0488636 0.323003 -3.34957 -0.0521419 0.00836128 0.379471
337 1 0.201832 0.203133 0.998587 1.5148 -3.28542 -0.187636 -0.477562 -0.0251793
254 1 0.176029 0.175655 1.00091 0.722829 -3.29533 0.296853 -0.154122 -0.359192
264 1 0.247179 0.175214 0.0240447 1.94651 -3.32905 0.703242 -0.163791 0.299266
339 1 0.225717 0.200984 0.025743 0.743221 -3.31515 -0.315235 -0.0558715 -0.26105
1858 1 0.225993 0.17421 0.0502767 0.508199 -3.34457 -0.200945 0.30101 0.0865609
1941 1 0.251408 0.200774 0.0503099 0.664863 -3.2955 -0.559471 -0.325664 -0.506485
343 1 0.274632 0.199467 0.0253098 0.508607 -3.33383 -0.159405 -0.169832 0.047621
1862 1 0.275895 0.175377 0.0519524 1.18082 -3.27262 -0.0732432 -0.44745 -0.935275
258 1 0.223718 0.177471 0.999483 1.43987 -3.3415 0.118462 -0.388783 -0.112243
262 1 0.275984 0.17536 0.99839 0.500153 -3.28857 -0.0990611 -0.153027 0.132419
268 1 0.298575 0.174027 0.0248984 0.701578 -3.32038 0.511334 0.247018 -0.00216033
1945 1 0.300561 0.199136 0.0483378 0.78281 -3.30892 0.270251 0.212118 0.300278
345 1 0.29879 0.200066 1.00144 1.10577 -3.34773 0.442967 0.0243301 -0.215894
347 1 0.326245 0.201179 0.0245955 0.934522 -3.33661 -0.437437 -0.395222 -0.102731
1866 1 0.325091 0.175808 0.0489163 0.573716 -3.32919 -0.101653 -0.366233 0.261957
266 1 0.323951 0.173504 0.999175 0.905223 -3.34941 0.392824 0.333603 0.436162
272 1 0.350362 0.176436 0.0262101 0.939468 -3.30592 -0.100642 -0.519049 -0.41403
349 1 0.349449 0.1992 0.99958 0.707123 -3.35847 0.0500123 0.0637916 0.113323
1949 1 0.349132 0.200527 0.0520186 0.900294 -3.2875 0.423755 0.0854151 -0.48323
351 1 0.375226 0.19852 0.0232452 1.19805 -3.32458 0.103978 0.0703447 0.547273
1870 1 0.375154 0.175073 0.0504538 0.194216 -3.36746 0.17911 0.299766 0.0614573
270 1 0.376742 0.173798 -0.000549264 0.459715 -3.35155 -0.319512 0.0263483 0.100098
276 1 0.400531 0.173583 0.0247623 0.580835 -3.30729 -0.0913098 0.448817 0.318092