ITEM: TIMESTEP
13500
ITEM: NUMBER OF ATOMS
32000
ITEM: BOX BOUNDS pp pp pp
5.3462750523904274e+00 7.5653724947609618e+01
-2.6619962219550644e+00 8.3661996221955121e+01
-4.0477855338350182e+00 8.5047785533833959e+01
ITEM: ATOMS id type xs ys zs c_csym c_peratom fx fy fz
4 1 0.0234212 0.0408776 0.0237428 7.19388 -3.32912 -0.0743063 0.0837016 0.0746252
3 1 0.0361147 0.00676702 0.021703 1.64631 -3.25906 -0.639643 0.674662 -0.171962
8 1 0.0623695 0.033614 0.0223786 1.42247 -3.30915 -0.0856796 -0.103522 -0.658629
1605 1 0.0584341 0.0110488 0.0459052 1.18186 -3.26573 0.101215 -0.276496 0.0759957
12 1 0.100922 0.0267291 0.0159551 0.342027 -3.24492 -0.729716 0.0793837 -0.0789351
7 1 0.0721292 0.00314998 0.0151344 0.516863 -3.29793 0.33105 -0.0257763 -0.14987
1609 1 0.0976752 0.00266046 0.0406072 0.14224 -3.29767 -0.136765 0.132948 -0.0301213
1606 1 0.0865091 0.0327672 0.0466473 0.585313 -3.29487 0.123964 0.37272 0.0696948
1610 1 0.12483 0.0265414 0.0393345 0.877761 -3.23879 -0.13589 0.19051 0.902967
16 1 0.13736 0.020371 0.0123476 1.93326 -3.19162 0.622011 -0.427522 -0.447482
1614 1 0.16206 0.0193348 0.0359628 1.00849 -3.25126 0.443925 -0.185272 0.113098
95 1 0.168804 0.0429748 0.00761185 4.44085 -3.25383 -0.664277 0.457697 0.371693
20 1 0.174601 0.00708838 0.00836754 6.53619 -3.29221 0.219575 0.227767 0.156855
99 1 0.203828 0.0310277 0.00723741 6.75985 -3.24653 0.134995 0.0533585 0.202602
24 1 0.232961 0.00896343 0.0132932 0.906489 -3.30084 -0.122172 -0.502017 -0.159832
1618 1 0.198133 0.00781296 0.0319889 6.17991 -3.31542 0.817324 0.375734 0.237844
1701 1 0.228156 0.0332518 0.0315412 6.10434 -3.29899 -0.138505 0.257621 0.785496
1697 1 0.190406 0.0458333 0.0333919 3.7035 -3.33508 0.398764 -0.0681834 0.389508
103 1 0.259113 0.0353167 0.0130243 5.50955 -3.21665 -0.227149 -0.269755 -0.0825964
28 1 0.286711 0.00923102 0.0150352 7.28594 -3.2325 -0.0431597 0.0682239 0.518782
1622 1 0.258884 0.0105398 0.0374071 1.07655 -3.27853 -0.402564 -0.390198 -0.0947524
1705 1 0.28386 0.0356267 0.0358354 6.75292 -3.23516 0.344036 0.0598957 0.210508
107 1 0.295239 0.0377582 0.00486527 7.2578 -3.26762 0.684391 0.554617 -0.197871
32 1 0.324246 0.0143752 0.00669266 6.8091 -3.25924 0.0207431 0.813214 -0.247463
1626 1 0.310057 0.0102841 0.0400745 7.27471 -3.33599 0.107522 -0.183775 -0.140101
1709 1 0.321743 0.0409375 0.0295251 7.40535 -3.34485 -0.020461 0.0361355 -0.137606
111 1 0.350471 0.0409708 0.00716437 0.962474 -3.31088 -0.14587 -0.123615 -0.629141
1630 1 0.349136 0.0177654 0.0301462 6.20025 -3.34507 0.177956 0.102086 0.256711
36 1 0.380149 0.0194979 0.00737579 0.636978 -3.26173 0.067479 -0.153094 -0.220441
1713 1 0.378903 0.0423807 0.0277668 0.919942 -3.26017 -0.0452268 0.201492 0.562956
115 1 0.406475 0.045614 0.00517961 0.677653 -3.3399 0.350538 -0.267906 -0.0323418
1634 1 0.407527 0.021276 0.0296767 0.394261 -3.30746 0.0590073 -0.198959 0.0389869
40 1 0.436292 0.0193583 0.00519428 1.83571 -3.3314 0.108746 0.444467 0.51091
1717 1 0.433103 0.0458494 0.0287086 0.761071 -3.35769 0.047387 0.0406126 0.207317
119 1 0.462562 0.0465122 0.00834385 0.420021 -3.34103 -0.0170592 -0.22567 -0.0437983
1638 1 0.461228 0.0226456 0.0318657 0.7644 -3.31345 0.168492 -0.077483 -0.356082
44 1 0.49113 0.0217624 0.0106357 1.30327 -3.31832 0.14822 0.234273 -0.36106
1642 1 0.519209 0.0253827 0.0316983 2.24182 -3.27608 0.421002 0.00666819 -0.561628
123 1 0.520582 0.050048 0.00749736 1.63306 -3.34476 -0.243132 -0.196108 0.374246
1721 1 0.491947 0.0465362 0.0314085 1.01685 -3.3168 -0.477627 0.293846 -0.132548
48 1 0.550296 0.0281423 0.00980474 5.73312 -3.15771 -1.27256 0.393049 -0.152665
52 1 0.581519 0.0271318 0.0244885 7.14345 -3.22726 0.613802 0.271386 0.167275
49 1 0.587895 0.00289558 0.999143 8.92765 -3.28208 0.075103 -0.515496 0.341415
127 1 0.572977 0.0559134 0.0092246 7.96141 -3.25398 0.290151 -0.235418 0.601605
1725 1 0.546864 0.0530226 0.0324494 2.61045 -3.3349 -0.222798 -0.24549 -0.112718
51 1 0.611683 0.00657789 0.0241666 3.35826 -3.29865 0.413531 -0.377907 -0.25253
56 1 0.641281 0.0311645 0.0206614 2.32203 -3.30034 0.444897 -0.669583 0.248928
131 1 0.61206 0.0508775 0.0229202 7.63578 -3.24039 -0.271639 -0.303915 -0.34843
50 1 0.617353 0.0234783 0.994709 10.011 -3.21973 -0.382112 0.574651 0.845121
53 1 0.647451 0.00437354 5.57927e-05 0.680323 -3.25943 0.342492 -0.115421 0.191067
60 1 0.704102 0.0345664 0.0240797 0.644737 -3.31207 -0.381916 -0.14497 -0.34906
55 1 0.674781 0.00984635 0.0235448 0.8656 -3.27935 0.0513608 0.0400402 -0.455118
54 1 0.678151 0.0293702 0.999458 1.64376 -3.28782 -0.632483 0.313768 0.136659
57 1 0.707122 0.00840516 0.00141445 0.416246 -3.30472 0.0542941 -0.39169 0.260696
64 1 0.762907 0.0372035 0.0249807 1.15584 -3.32172 -0.493277 -0.265505 0.371936
58 1 0.734005 0.0319716 0.00180806 1.34973 -3.32546 -0.0830376 0.449655 -0.455323
59 1 0.737372 0.0125419 0.0249085 1.31994 -3.33426 -0.347498 -0.474844 0.0754461
61 1 0.764391 0.0102679 0.000928636 1.66447 -3.2574 -0.102963 0.470161 0.783514
63 1 0.79069 0.0136435 0.0251015 1.11826 -3.34423 -0.207505 0.387444 0.642183
68 1 0.816691 0.0391665 0.0267019 0.872743 -3.32418 0.131992 -0.00614922 0.374971
65 1 0.820074 0.0182684 0.0042222 1.4482 -3.28554 0.433086 -0.507191 0.336834
62 1 0.788617 0.0374878 0.00263434 0.779531 -3.29559 -0.131938 0.0585822 0.0108448
72 1 0.873145 0.0404092 0.03248 1.95346 -3.22317 0.431834 0.584411 -0.0147592
66 1 0.848193 0.0427085 0.00702455 0.936767 -3.24734 -0.49262 -0.99655 0.248849
67 1 0.850784 0.0171663 0.0293578 8.26389 -3.24818 -1.0311 -0.439448 0.117059
69 1 0.878032 0.0177054 0.00964665 2.24305 -3.27223 -0.000757065 0.0949956 -0.561711
70 1 0.903904 0.0414951 0.0136611 1.29229 -3.25361 -0.00208014 0.258893 -0.509006
76 1 0.923758 0.0380542 0.0392747 5.32503 -3.29605 0.437361 -0.0876125 0.31877
73 1 0.934305 0.022322 0.0134311 6.94014 -3.26748 0.165003 -0.467056 -0.149731
71 1 0.893994 0.0124045 0.0375725 9.24719 -3.34473 -0.0687693 0.0738809 0.0233593
78 1 0.996449 0.0429082 0.000546748 7.4616 -3.2854 0.103015 -0.644697 0.00482304
75 1 0.959942 0.0195051 0.0366668 7.4507 -3.30995 0.235051 0.318029 -0.0504672
74 1 0.961356 0.0451711 0.0163536 3.90946 -3.22999 -0.198796 -0.643677 0.0576343
80 1 0.988719 0.0426221 0.0406979 2.35442 -3.27697 -0.319532 -0.321975 0.295682
79 1 0.99689 0.0166465 0.0236815 8.13361 -3.2658 -0.0184478 -0.0835052 0.312914
77 1 0.970371 0.0128682 0.00196295 2.47464 -3.27707 0.188173 0.737145 0.168158
83 1 0.0518132 0.0645043 0.0236459 8.8304 -3.32109 -0.239044 0.326719 0.286535
81 1 0.0272728 0.0665193 0.999885 6.99825 -3.29088 -0.415842 -0.330347 0.246284
84 1 0.0431535 0.0894309 0.0460089 0.348077 -3.30001 -0.132195 -0.267174 0.0348882
82 1 0.0513066 0.0913643 0.00070116 6.74693 -3.3113 0.0910107 -0.136644 0.156498
158 1 0.0190476 0.0884956 0.0217319 0.400308 -3.33991 0.00589415 -0.247615 -0.153906
88 1 0.0750187 0.0903658 0.0268785 7.17041 -3.34741 0.422494 -0.261396 -0.119802
87 1 0.0920931 0.0570458 0.0216991 1.48277 -3.34483 -0.448859 0.276252 -0.0746642
92 1 0.117795 0.0829416 0.0209726 1.55631 -3.27586 -0.290075 -0.369759 0.673728
86 1 0.0903547 0.0812373 0.998082 0.764239 -3.32461 -0.0734747 -0.0039814 -0.0330255
91 1 0.130959 0.0510402 0.0156327 1.23677 -3.33122 -0.0658133 0.488115 -0.0744345
1689 1 0.112601 0.0575958 0.0478064 1.22365 -3.30641 0.224085 -0.109951 -0.315754
96 1 0.158191 0.0790015 0.0175401 3.04265 -3.24249 -0.459165 -0.717386 -0.0914299
1693 1 0.153074 0.0492302 0.0413089 1.68648 -3.27836 0.0576353 0.451557 -0.0342433
1694 1 0.179591 0.0767134 0.0429318 0.822441 -3.32408 0.356814 -0.22284 -0.195977
100 1 0.193956 0.0691929 0.0103412 2.09939 -3.2648 -0.097075 0.122938 0.346094
1698 1 0.219765 0.0699217 0.0373669 1.16692 -3.25536 -0.776089 0.0839528 -0.523345
104 1 0.230042 0.0569751 0.00863141 9.67625 -3.31678 0.158041 0.317891 -0.129861
179 1 0.218239 0.0932107 0.0136551 3.02534 -3.31247 0.129257 0.33495 0.268367
183 1 0.256773 0.0926131 0.0102839 1.72579 -3.24404 -0.187051 -0.175901 -0.144172
1785 1 0.28371 0.0957055 0.033973 2.23614 -3.2274 -0.276687 -0.880301 -0.202757
108 1 0.270408 0.0643824 0.000588244 9.56145 -3.26895 -0.591161 -0.450337 0.156068
1702 1 0.256254 0.0628965 0.0330354 6.29371 -3.30763 0.423473 -0.187433 -0.317807
1781 1 0.244004 0.0966888 0.0386607 0.464008 -3.29672 0.224865 0.106555 -0.268964
112 1 0.321874 0.0636656 0.00402897 0.664331 -3.34337 0.307968 0.112126 -0.456295
187 1 0.294089 0.0887915 0.00383021 8.06453 -3.2027 0.439272 -0.444666 -0.460134
1706 1 0.294496 0.0650404 0.0248287 8.67144 -3.28456 -0.210613 -0.11811 0.604428
1789 1 0.322847 0.0872039 0.0278724 6.96155 -3.2792 -0.285656 0.204903 -0.348274
191 1 0.348722 0.0902071 0.00407146 0.667134 -3.34213 0.33619 -0.167422 -0.015551
116 1 0.376583 0.0666019 0.00507965 0.692473 -3.29762 0.455417 0.327761 0.0212656
1710 1 0.350434 0.0651228 0.0278593 0.730574 -3.24505 -0.317196 -0.0449267 -0.0694805
1793 1 0.375179 0.0908638 0.0300907 1.03314 -3.24289 0.143435 -0.0658682 -0.637808
195 1 0.40595 0.0918008 0.00563872 0.520888 -3.32615 -0.47736 0.350079 -0.0878648
1714 1 0.403843 0.0699658 0.0280703 0.760106 -3.30092 0.349572 -0.359369 0.215435
120 1 0.433454 0.0705785 0.00649882 0.470524 -3.30062 0.171381 -0.447542 0.171689
1718 1 0.46302 0.0691054 0.0331774 2.63793 -3.30243 -0.298427 0.221608 -0.574594
199 1 0.46184 0.0927137 0.00882111 1.81905 -3.25061 -0.322639 0.417421 -0.262711
1797 1 0.43264 0.0944953 0.0293908 0.566314 -3.3057 0.0547491 -0.476352 0.248763
124 1 0.48887 0.0706692 0.00900761 0.529974 -3.33256 0.418948 0.0588275 -0.129361
1801 1 0.485863 0.0974055 0.0310336 0.593661 -3.27362 0.547419 -0.323995 0.446449
1722 1 0.514367 0.0735506 0.0337009 1.24887 -3.3279 0.164031 0.127313 -0.479759
203 1 0.512842 0.098414 0.00846288 0.373012 -3.31152 -0.190524 -0.0490575 0.183672
128 1 0.541818 0.0767375 0.00995602 0.863467 -3.3002 0.268311 0.0337564 0.129528
1726 1 0.573703 0.077168 0.0357246 7.58681 -3.31096 -0.169261 0.394207 -0.228944
207 1 0.569869 0.102282 0.010979 0.156972 -3.3476 -0.183854 -0.0321536 0.117778
1805 1 0.540011 0.0996098 0.0323657 0.723012 -3.35359 0.442829 0.151135 -0.0730519
132 1 0.59994 0.0783989 0.0132524 6.12579 -3.26559 -0.116052 0.417222 -0.131618
136 1 0.64259 0.0767781 0.021797 6.09137 -3.22351 -0.139661 -0.153468 -0.264116
133 1 0.643849 0.0516373 0.998154 7.25115 -3.28085 0.243045 0.11367 0.168117
135 1 0.671633 0.056261 0.0235696 1.38701 -3.27279 0.654845 -0.296926 -0.778862
140 1 0.702633 0.0830218 0.0201683 1.61088 -3.3134 -0.120292 -0.671599 0.286668
137 1 0.704696 0.0554352 0.997762 1.27629 -3.32764 -0.164519 0.162085 0.190106
134 1 0.671713 0.0780026 0.998221 6.57712 -3.37739 0.259977 -0.385363 -0.0717598
139 1 0.72995 0.0578651 0.023174 0.632538 -3.31405 0.0983781 0.273173 -0.140254
144 1 0.755666 0.0833187 0.0246234 0.404066 -3.33348 0.268411 -0.24312 -0.211816
141 1 0.757417 0.0594956 0.000995961 1.42309 -3.34637 0.399715 -0.0649794 0.227552
138 1 0.72999 0.0827497 0.99768 1.1641 -3.23593 0.101571 -0.230456 0.769405
145 1 0.813822 0.0617499 0.00571991 1.50176 -3.24249 0.558482 0.272588 0.112403
143 1 0.786005 0.0615192 0.0278269 0.660111 -3.28708 -0.0518031 0.0454907 -0.19202
148 1 0.812469 0.0843413 0.0287032 0.792699 -3.34698 0.184979 0.516051 0.0990362
142 1 0.787367 0.0837396 0.00435795 0.442728 -3.34877 -0.512365 0.410708 -0.0915158
147 1 0.84414 0.0646453 0.028739 0.948715 -3.31987 -0.382117 -0.28483 0.640497
149 1 0.873847 0.0647265 0.00937039 0.380499 -3.23255 0.603781 0.386687 0.574791
152 1 0.87093 0.0879051 0.0322931 0.25336 -3.35431 0.0970997 -0.105328 -0.00165247
146 1 0.844578 0.0868549 0.00824264 0.366449 -3.28805 -0.317926 0.537864 -0.0347543
151 1 0.901368 0.0636551 0.0349459 1.2688 -3.30677 -0.575316 0.399993 0.120389
150 1 0.90192 0.0883425 0.0117894 0.351014 -3.35587 0.120577 0.0983246 0.568891
156 1 0.928792 0.0884275 0.0373251 0.249152 -3.31865 -0.436283 0.40538 -0.116889
153 1 0.931263 0.0660098 0.0158501 0.725347 -3.28863 0.0189306 -0.268754 -0.588838
155 1 0.955328 0.0671047 0.0395735 1.62323 -3.26231 0.645803 -0.841159 0.405093
154 1 0.960569 0.0878181 0.0175825 0.713785 -3.28414 0.0472968 0.709483 0.0784273
159 1 0.0161203 0.0652994 0.0456674 0.517722 -3.33033 -0.259971 0.17221 -0.499298
160 1 0.987603 0.0889375 0.0411486 0.875292 -3.31001 -0.408417 -0.608127 0.187483
157 1 0.988651 0.0647216 0.0199221 1.48992 -3.21104 0.857965 1.08716 0.174438
163 1 0.0699218 0.113693 0.0473429 0.340871 -3.28725 0.149303 0.300312 0.521225
164 1 0.0413178 0.137061 0.0457998 0.566398 -3.32429 -0.438189 0.124921 0.185266
161 1 0.0455178 0.114029 0.024139 0.26546 -3.29452 -0.2486 -0.0555008 -0.444121
239 1 0.0137406 0.111336 0.0428307 0.868372 -3.23565 0.442494 0.632835 0.434659
238 1 0.0148005 0.136274 0.0220653 0.348774 -3.34762 0.160213 0.213155 -0.17037
162 1 0.0703531 0.139883 0.0268116 0.692576 -3.25136 0.12078 -0.318544 -0.519494
165 1 0.0763508 0.115202 0.0043593 7.41555 -3.26701 -0.271904 -0.122543 -0.0174704
167 1 0.101199 0.116342 0.0288499 7.34443 -3.29629 -0.0456713 -0.355373 0.0972827
166 1 0.100285 0.138923 0.00593359 7.16594 -3.33388 0.358215 0.40684 -0.515512
169 1 0.115442 0.106274 0.00206908 2.64884 -3.24116 0.0507174 0.37419 -0.900082
172 1 0.126926 0.140422 0.0295598 7.48425 -3.30077 0.0176632 0.00118415 0.161198
171 1 0.14284 0.1088 0.0225602 1.13488 -3.21254 -0.380744 0.183759 0.397948
176 1 0.164641 0.13589 0.0265187 1.35489 -3.26928 0.483693 -0.0735921 -0.397102
170 1 0.139867 0.133749 0.000384415 0.668536 -3.36027 0.00348843 -0.280569 -0.203635
175 1 0.180798 0.105051 0.0205098 1.92322 -3.17153 0.136269 -0.53393 -0.445314
1773 1 0.166601 0.107741 0.0471535 0.680046 -3.26278 -0.22127 -0.0206527 0.554867
180 1 0.203437 0.128759 0.0212529 0.60985 -3.29052 0.592174 0.338781 -0.276106
1777 1 0.206702 0.102533 0.0438268 0.503652 -3.34322 -0.26584 -0.16544 0.0136836
1778 1 0.22955 0.128653 0.0450496 0.774179 -3.31171 0.667246 -0.489929 0.00658199
184 1 0.242136 0.122201 0.0152833 0.540443 -3.3646 0.199265 0.0748905 0.121229
1782 1 0.270285 0.123075 0.0412917 0.624893 -3.32218 -0.317777 0.418672 -0.304247
188 1 0.282965 0.11778 0.00972188 0.359101 -3.29581 -0.288797 0.508007 0.182594
263 1 0.270105 0.147687 0.0157185 0.303742 -3.32889 -0.12852 -0.181108 -0.157173
1786 1 0.30967 0.11814 0.0344318 0.480323 -3.22383 -0.178158 0.218894 -0.673435
192 1 0.319189 0.111244 0.00260724 8.04675 -3.31542 0.789626 0.418589 0.186387
267 1 0.308812 0.144363 0.00967728 0.816682 -3.2827 0.202122 -0.251444 0.0287014
1869 1 0.335855 0.141135 0.0340333 1.88091 -3.24235 -0.380444 0.432884 -0.437052
271 1 0.346362 0.136784 0.00305023 8.19802 -3.29362 0.266883 -0.0138061 0.338825
1790 1 0.348522 0.111716 0.0275973 7.92835 -3.30182 -0.41971 0.398656 -0.130936
196 1 0.378196 0.115574 0.00677364 1.89214 -3.29901 -0.263193 -0.713286 -0.603786
1873 1 0.373358 0.139336 0.0248844 5.90342 -3.25822 0.164661 -0.0390141 0.738157
1794 1 0.406607 0.116692 0.0286239 2.4375 -3.23442 -1.22891 -0.111532 0.0217404
275 1 0.402339 0.140605 0.00418509 0.357712 -3.2759 0.600761 -0.105789 -0.163906
200 1 0.431986 0.117311 0.00591495 0.343067 -3.34335 0.0799239 0.0567056 -0.358681
1877 1 0.427731 0.141627 0.0279921 0.688814 -3.21089 0.293051 -0.0734129 0.451373
1798 1 0.458479 0.119184 0.0307632 0.615683 -3.26946 -0.649549 0.163667 -0.213538
279 1 0.454381 0.143564 0.00652515 0.759617 -3.30053 0.507406 -0.239323 -0.263183
204 1 0.485494 0.121382 0.0095828 0.908466 -3.36008 0.0806861 0.210148 -0.58333
1802 1 0.511694 0.123767 0.0329396 0.439517 -3.34542 -0.178763 -0.259334 -0.0685286
283 1 0.513077 0.146092 0.00906982 0.787978 -3.32378 -0.740702 0.319552 -0.154764
1881 1 0.480767 0.14553 0.0331884 1.25783 -3.25201 0.672992 -0.365691 -0.67231
208 1 0.53963 0.125094 0.0100612 0.363408 -3.2984 0.222896 -0.620555 -0.0481967
1806 1 0.567866 0.127204 0.0341 0.681892 -3.31036 -0.0930699 -0.645128 -0.16103
287 1 0.563687 0.149566 0.0121658 0.971845 -3.29901 0.719648 -0.199778 -0.686859
1885 1 0.536851 0.147559 0.0336094 0.481038 -3.27266 -0.00430109 0.0824538 0.285083
1809 1 0.596171 0.103503 0.0346564 6.70261 -3.30568 0.0591344 -0.317203 0.296661
211 1 0.625606 0.102785 0.0130321 5.69725 -3.26915 -0.156972 0.787092 0.309421
212 1 0.59718 0.126124 0.0126744 1.23015 -3.26022 -0.83162 -0.0241685 -0.22658
1810 1 0.620811 0.127482 0.0372012 5.58329 -3.2582 0.247719 0.0493356 -0.225685
1889 1 0.591973 0.152855 0.0357753 1.48091 -3.26885 0.61643 -0.506243 -0.110007
215 1 0.673758 0.10393 0.0183095 2.31169 -3.26945 -0.382957 -0.277342 0.293344
216 1 0.651901 0.129126 0.0159635 6.06538 -3.31082 -0.657914 0.0139931 0.105704
220 1 0.698807 0.128025 0.0215895 1.81179 -3.30642 0.347082 0.140875 0.0151736
217 1 0.703941 0.105175 0.997491 0.95262 -3.2542 -0.365423 0.0913385 -0.142769
219 1 0.730569 0.106259 0.0218451 0.857548 -3.30352 -0.565688 0.168096 0.431016
224 1 0.754698 0.130987 0.0250724 0.192202 -3.30461 0.17212 -0.0836401 0.0486013
1818 1 0.726615 0.130996 0.0464957 0.609508 -3.31339 -0.0911861 -0.56891 -0.246994
221 1 0.758879 0.106868 0.0010278 0.369954 -3.32065 -0.0767268 0.152342 0.16931
218 1 0.728208 0.129545 0.999073 1.18576 -3.3686 0.328173 0.169772 0.0662022
223 1 0.784204 0.109314 0.0270314 0.511084 -3.33583 -0.106693 -0.513429 0.228501
228 1 0.810282 0.13371 0.0299679 0.979855 -3.21932 0.103972 -0.392406 0.132758
225 1 0.813785 0.109293 0.00713158 0.412009 -3.31064 -0.258294 -0.308883 -0.345492
222 1 0.783952 0.130969 0.00447391 0.614645 -3.34307 0.321886 0.449577 -0.266515
227 1 0.839959 0.10924 0.0313209 0.498272 -3.33186 0.0192543 -0.168913 0.49274
229 1 0.870433 0.111292 0.0101079 0.842815 -3.33329 0.218137 -0.0876956 0.298763
232 1 0.868948 0.135317 0.0359298 0.828484 -3.29491 -0.376176 -0.656883 0.141599
226 1 0.838856 0.131492 0.0120403 3.25759 -3.2433 0.996079 1.08951 -0.908545
231 1 0.89839 0.111114 0.0347688 0.432556 -3.34786 -0.110207 -0.169979 0.276647
236 1 0.926549 0.13538 0.0367009 1.03839 -3.25429 -0.271362 -0.0241411 0.701729
233 1 0.930266 0.113596 0.0149619 0.821257 -3.30841 -0.213046 -0.779123 0.366394
230 1 0.897523 0.135278 0.0162285 1.26985 -3.27991 0.402116 0.188159 -0.765025
235 1 0.958386 0.111112 0.0404157 1.03198 -3.2908 -0.518059 0.0875102 -0.470371
234 1 0.956031 0.135762 0.0182529 0.640712 -3.22692 0.844339 0.171162 -0.405582
240 1 0.983446 0.135987 0.0404179 0.809705 -3.28911 0.42995 0.277963 0.3268
237 1 0.989329 0.112369 0.0201331 0.412683 -3.29906 -0.397306 -0.052205 -0.527975
244 1 0.0374835 0.186063 0.0436329 0.922284 -3.34068 0.096126 0.289499 0.358517
242 1 0.0417907 0.186174 0.000955804 0.557023 -3.33022 -0.412911 0.106408 -0.708014
241 1 0.0390535 0.161508 0.0230486 0.869259 -3.29969 -0.0450249 -0.079016 0.126353
319 1 0.0109082 0.163599 0.0453433 2.12823 -3.22127 -0.529248 -0.725177 -0.912827
318 1 0.0107535 0.186933 0.0207834 0.742984 -3.33932 0.00119535 0.0490541 -0.0704565
243 1 0.0688366 0.162443 0.0470262 0.833869 -3.30991 -0.579503 0.314944 0.484778
248 1 0.0671882 0.183935 0.0225237 2.80517 -3.1992 0.439867 1.21974 1.18226
245 1 0.0702021 0.163249 0.0029688 0.540358 -3.2388 0.484097 -0.572975 -0.869028
247 1 0.0974494 0.163226 0.0269061 0.324894 -3.27874 0.346784 0.396382 -0.274441
246 1 0.098356 0.189383 0.00357944 0.539791 -3.31864 0.0301166 -0.478643 0.314577
249 1 0.129377 0.164263 0.00642452 7.62858 -3.35514 -0.406446 0.366278 0.150388
252 1 0.125071 0.189604 0.0283961 0.558025 -3.2559 -0.945115 -0.493706 -0.439417
251 1 0.152406 0.165753 0.0324485 7.45014 -3.27293 0.666743 0.025345 -0.615406
256 1 0.180544 0.193809 0.0291061 7.25872 -3.25024 -0.614977 -0.684235 0.575305
250 1 0.154959 0.190897 0.00497938 6.9419 -3.33124 -0.263573 0.120034 0.403196
259 1 0.23277 0.15323 0.0221194 1.40344 -3.27738 -0.690391 -0.0612813 -0.429215
255 1 0.193805 0.161358 0.0277995 1.7282 -3.295 -0.63535 -0.369167 -0.572503
260 1 0.218487 0.184144 0.0248132 1.32013 -3.20455 -0.204866 0.444437 0.541569
254 1 0.192443 0.187449 0.00105483 1.07525 -3.2291 -0.118765 -0.405672 -0.299001
264 1 0.255074 0.178914 0.0198145 0.972934 -3.25833 0.51282 -0.0911055 0.180311
1861 1 0.256431 0.153384 0.0456236 0.175931 -3.27332 0.573888 -0.381913 0.210673
1862 1 0.28286 0.17865 0.0462372 0.526427 -3.34424 -0.141993 0.0443328 -0.177807
268 1 0.294514 0.172467 0.0174444 1.86448 -3.27364 0.239792 0.306097 -0.397991
1866 1 0.322463 0.173552 0.0382137 1.14967 -3.25774 -0.62868 -0.19307 0.0989205
272 1 0.336621 0.169385 0.00869725 1.02919 -3.30156 -0.42771 0.0295511 0.106162
1865 1 0.297534 0.147873 0.0395506 0.634479 -3.35154 -0.33111 0.123723 0.22992
276 1 0.374899 0.163164 0.00290057 6.54584 -3.34632 -0.0904924 0.406855 0.2893
351 1 0.359039 0.19593 0.0100878 0.420308 -3.29038 -0.152459 -0.425671 0.0715854
1870 1 0.3596 0.167522 0.0338729 1.26899 -3.27833 0.378809 0.263272 -0.36046
1953 1 0.383184 0.195685 0.0350068 0.570963 -3.32051 0.0277294 -0.347569 -0.432609
355 1 0.397291 0.191299 0.0033951 6.63401 -3.28563 -0.480754 -0.730645 0.169033
1874 1 0.401998 0.163821 0.0281253 7.8492 -3.27612 -1.17561 0.444714 0.07218
280 1 0.42508 0.167726 0.00543035 1.18599 -3.28028 0.14465 -0.271023 -0.542294
359 1 0.451156 0.191564 0.00629302 0.386023 -3.31429 0.291153 -0.26735 -0.307983
1878 1 0.452704 0.165201 0.0286986 1.54318 -3.28243 -0.426488 0.941717 0.30462
1957 1 0.422462 0.191815 0.0273787 6.29012 -3.28131 -0.27357 -0.59764 0.400013
284 1 0.481653 0.167225 0.00894791 1.0305 -3.34008 0.0693917 0.185369 -0.611733
1882 1 0.508201 0.16929 0.0311554 0.479407 -3.30798 -0.117181 0.0813535 0.112008
1961 1 0.479248 0.193836 0.0292814 1.17781 -3.25145 -0.693519 -0.879935 0.281763
363 1 0.507645 0.191808 0.00885405 1.16201 -3.29378 -0.146138 0.344612 -0.420659
288 1 0.538217 0.172175 0.00974826 0.744358 -3.25075 -0.708967 -0.0684081 0.203702
1886 1 0.56316 0.171787 0.0345602 0.614999 -3.31281 -0.315524 0.630315 0.255656
367 1 0.562808 0.196279 0.0127061 0.766178 -3.26819 -0.103685 0.116309 -0.254246
1965 1 0.533392 0.195885 0.031953 0.690836 -3.25978 -0.211328 -0.522034 0.368488
292 1 0.591833 0.174379 0.0121484 0.420485 -3.30792 -0.168506 -0.119697 -0.0792814
1969 1 0.590962 0.195833 0.0363371 2.51195 -3.27978 -0.937537 0.555926 -0.0358463
291 1 0.61883 0.150408 0.0130895 1.84123 -3.29147 0.47759 0.563632 0.38957
1890 1 0.619055 0.176747 0.0369668 1.14798 -3.26237 0.253533 -0.736326 0.506371
1893 1 0.645102 0.151269 0.0393868 1.50552 -3.34022 0.219891 0.473005 0.0612668
296 1 0.646738 0.175433 0.0168027 0.98795 -3.25322 0.0952718 0.390251 0.349713
371 1 0.617038 0.198548 0.0127972 1.26376 -3.30969 -0.307077 0.490993 0.365591
1973 1 0.641499 0.202226 0.0382583 0.824116 -3.27842 -0.0602797 -0.452707 0.276543
295 1 0.677632 0.153797 0.0189061 2.28657 -3.29707 -0.394095 0.140233 -0.0312407
1894 1 0.670311 0.179334 0.0420328 1.29684 -3.30162 0.26941 -0.408465 -0.397657
1897 1 0.697239 0.152324 0.0450616 0.857962 -3.32475 -0.133181 0.373374 -0.176706
300 1 0.699844 0.179651 0.0204339 0.597717 -3.34074 0.632513 0.00510698 -0.0247143
299 1 0.726956 0.153575 0.0222107 0.657667 -3.29795 -0.669555 0.231327 0.504983
304 1 0.751151 0.180044 0.0255062 2.0266 -3.3341 0.36743 -0.351977 -0.356356
1898 1 0.722593 0.178423 0.0476196 1.13241 -3.33647 0.229956 -0.250881 -0.3588
1901 1 0.751807 0.154131 0.0478798 0.323853 -3.3432 0.194323 0.302739 0.0727542
303 1 0.782605 0.155057 0.0277804 0.362139 -3.3433 -0.257436 0.30435 -0.223687
308 1 0.812836 0.179675 0.0309603 1.37708 -3.2556 -0.936989 0.230074 0.349744
305 1 0.813744 0.15793 0.00861171 1.32143 -3.33168 -0.335582 -0.53076 -0.451972
302 1 0.782636 0.177983 0.00281725 2.74243 -3.37509 -0.0873812 0.227906 0.416272
309 1 0.868937 0.157095 0.0143422 0.540349 -3.27329 -0.0890441 0.0269366 -0.74249
307 1 0.839798 0.158244 0.0333941 0.851651 -3.25431 -0.311534 -0.829092 0.0633
312 1 0.865476 0.18046 0.0344985 0.887793 -3.30175 0.394343 0.632281 0.531241
306 1 0.839408 0.181473 0.0103887 0.595996 -3.22262 0.643882 -0.402631 0.0905535
311 1 0.896338 0.158209 0.0391975 0.977862 -3.31895 0.0309839 0.358128 -0.0843528
316 1 0.924055 0.182005 0.0394349 1.28369 -3.2794 -0.0812725 0.800495 -0.0775511
313 1 0.927217 0.161078 0.0185166 2.15409 -3.23778 -0.118703 -0.527284 -1.14602
310 1 0.897849 0.179674 0.015409 1.84513 -3.33796 -0.15846 0.839827 -0.233458
315 1 0.954123 0.157946 0.0385365 2.45019 -3.26119 0.24642 0.984567 0.632564
320 1 0.979425 0.184266 0.0411596 0.543665 -3.33494 -0.237612 0.163731 0.00752609
317 1 0.987088 0.160897 0.0210164 2.15057 -3.30245 -0.640635 -0.0595277 -0.296908
314 1 0.952434 0.185684 0.0164759 1.37516 -3.31876 0.40626 -0.254143 0.390761
323 1 0.0401749 0.210485 0.0216153 1.26637 -3.31923 -0.611454 -0.08843 0.146348
1922 1 0.0346018 0.232719 0.046399 0.538294 -3.29837 -0.134444 0.341228 -0.250682
324 1 0.00641081 0.233899 0.0208295 0.674089 -3.31664 0.0825654 -0.20918 0.531463
399 1 0.00726102 0.209877 0.044691 0.804985 -3.31394 -0.25824 -0.202433 -0.56752
1925 1 0.0640813 0.211024 0.0458795 0.486482 -3.3295 -0.0492077 -0.372906 0.423513
328 1 0.0643183 0.23548 0.0239605 0.455506 -3.27499 0.401765 0.0982561 0.301149
325 1 0.0695615 0.212091 0.00159318 0.459506 -3.33538 -0.30375 -0.101394 -0.129693
327 1 0.093768 0.212447 0.0261177 0.345433 -3.33868 0.257637 -0.182594 0.0405083
332 1 0.121629 0.236757 0.0294021 1.15443 -3.337 -0.140272 0.138532 -0.0186721
326 1 0.0964265 0.237899 0.00456248 0.473508 -3.34589 -0.0772393 -0.163475 0.142811
329 1 0.12454 0.214008 0.00395704 0.598898 -3.30958 0.253697 -0.0349491 0.270777
331 1 0.14818 0.212452 0.0292913 1.96848 -3.24956 0.564128 0.901799 -0.013431
336 1 0.173586 0.238801 0.0308272 2.13051 -3.29325 -0.258566 0.103987 0.165601
330 1 0.148461 0.239582 0.0063824 0.937213 -3.27414 0.457802 -0.244807 0.36876
333 1 0.18178 0.21902 0.00801045 6.86694 -3.31987 -0.608891 -0.402008 -0.331606
335 1 0.204736 0.215814 0.0334918 7.14532 -3.29738 0.287273 0.586385 0.163076
334 1 0.207302 0.242388 0.0106788 7.16446 -3.2836 0.00250294 -0.269548 0.159546
340 1 0.230674 0.241488 0.0367965 7.17555 -3.31843 0.000265252 -0.0790445 -0.232889
337 1 0.219008 0.210362 0.00286847 0.368266 -3.3444 0.36172 0.241345 -0.0622878
339 1 0.243962 0.209172 0.0294123 0.874506 -3.23904 -0.570218 -0.108858 -0.737888
338 1 0.246683 0.236265 0.00602177 1.83378 -3.29347 -0.614119 -0.292064 -0.311226
343 1 0.280058 0.20324 0.0221039 0.938561 -3.29673 0.566237 -0.0664651 -0.346977
344 1 0.268865 0.232857 0.0306627 2.68158 -3.23555 0.241891 0.687304 -0.338699
1949 1 0.344419 0.198411 0.0395585 1.01633 -3.28659 0.245815 0.567832 -0.104161
347 1 0.318541 0.199554 0.014881 0.801803 -3.37558 0.222166 -0.0995858 -0.00321445
348 1 0.306482 0.230167 0.0225968 0.299325 -3.35934 -0.145564 0.0261458 0.0409978
352 1 0.344668 0.225909 0.016709 0.279613 -3.3023 -0.300098 0.105184 0.275588
1945 1 0.30725 0.204907 0.0460838 0.194224 -3.32109 -0.153422 -0.0902526 -0.191368
1946 1 0.330637 0.230162 0.0475534 0.31439 -3.3437 0.106555 -0.201563 -0.0509071
356 1 0.382025 0.220488 0.0113521 0.626912 -3.26028 0.774261 0.296991 0.26014
1950 1 0.369395 0.224209 0.0418488 0.551837 -3.31961 -0.264473 0.257908 -0.0777506
1954 1 0.407845 0.221877 0.0388827 3.29362 -3.23849 0.210607 -0.16733 -1.13232
360 1 0.420696 0.214666 0.0059992 8.56961 -3.25868 0.355242 0.489885 -0.348013
439 1 0.448315 0.238566 0.00343886 7.65555 -3.36269 0.00020714 0.205697 0.322418
1958 1 0.446792 0.214625 0.0285228 7.38823 -3.31814 0.443258 0.593392 0.31713
364 1 0.477063 0.214625 0.00629425 0.766545 -3.29265 0.148471 0.558047 -0.0531577
1962 1 0.502947 0.216511 0.0314341 0.66762 -3.26907 0.468712 0.826336 -0.128367
443 1 0.50168 0.240769 0.00561947 0.564397 -3.35943 0.205415 0.114776 0.357577
2041 1 0.473283 0.241826 0.0284374 6.57769 -3.32857 -0.330163 -0.456952 -0.28019
2045 1 0.527969 0.24373 0.0318889 0.314147 -3.32666 -0.340631 -0.301756 -0.172628
368 1 0.53166 0.219048 0.0106631 0.663275 -3.32956 -0.0916098 0.290085 -0.598588
1966 1 0.555846 0.219815 0.034083 0.851089 -3.25257 0.382168 0.468361 0.0320962
447 1 0.557751 0.247741 0.0120471 1.92791 -3.29712 0.0135088 -0.981423 -0.406461
372 1 0.586381 0.220368 0.0133474 1.09805 -3.31352 0.358942 0.399554 0.134101
2049 1 0.58175 0.2454 0.0368264 0.663201 -3.27814 -0.241304 0.209881 -0.678249
1970 1 0.611707 0.222925 0.0389323 0.938214 -3.31179 0.068206 0.23405 -0.362453
451 1 0.610154 0.245143 0.0147028 1.65202 -3.34111 0.32494 0.447719 0.324436
376 1 0.640501 0.224314 0.0156898 0.739703 -3.301 -0.0837196 0.374017 0.301941
2053 1 0.637549 0.248391 0.0403221 0.39695 -3.34844 -0.0567157 0.131913 -0.220334
375 1 0.671421 0.202807 0.0177767 0.57225 -3.26103 0.123865 -0.401523 0.524312
1974 1 0.665764 0.226485 0.0398299 1.55313 -3.28101 0.528534 0.208994 0.321241
1977 1 0.698235 0.2027 0.042454 1.40227 -3.25273 -0.323245 0.0269492 0.748535
380 1 0.69762 0.225458 0.0220453 1.0401 -3.25783 -0.0255879 0.726158 -0.418024
2057 1 0.69381 0.251248 0.0434604 0.586324 -3.35759 -0.122764 -0.136784 0.360623
455 1 0.668399 0.251424 0.0192329 0.730633 -3.34241 -0.305447 -0.233388 0.0932663
379 1 0.727648 0.205817 0.0243952 2.19107 -3.24011 0.241567 -0.710743 -0.79599
384 1 0.755301 0.228026 0.0273814 1.33935 -3.27461 -0.241644 -0.0124528 -0.382115
1978 1 0.723538 0.228122 0.0453347 1.00215 -3.28441 -0.00862917 -0.00817428 0.553305
459 1 0.724583 0.251461 0.0243384 0.167624 -3.30577 -0.0245844 0.115687 -0.158305
1981 1 0.752758 0.201779 0.04782 1.25887 -3.31296 -0.224883 0.343687 0.358182
381 1 0.757498 0.205037 0.99995 1.94099 -3.35192 -0.0872254 -0.127046 0.372631
383 1 0.780681 0.202456 0.0263434 1.31486 -3.30843 -0.0745184 -0.133632 0.25671
388 1 0.806627 0.228362 0.0307469 0.641428 -3.26054 0.0281606 -0.129495 0.105758
385 1 0.811221 0.203516 0.00904997 1.07864 -3.24733 -0.107272 0.238565 -0.167074
382 1 0.78474 0.228318 0.00731184 1.66767 -3.2923 -0.459234 -0.251724 -1.03245
387 1 0.836319 0.20582 0.0326208 0.681657 -3.33575 0.236273 -0.334256 -0.136985
392 1 0.866247 0.228392 0.0346662 2.03662 -3.28339 -0.395469 0.441169 -0.322143
389 1 0.86868 0.203997 0.0138989 1.31811 -3.29386 0.0413035 0.178886 -0.39893