ITEM: TIMESTEP
14750
ITEM: NUMBER OF ATOMS
32000
ITEM: BOX BOUNDS pp pp pp
5.8542768579917226e+00 7.5145723142008322e+01
-2.7016274695698215e+00 8.3701627469570312e+01
-4.5972832444214333e+00 8.5597283244420495e+01
ITEM: ATOMS id type xs ys zs c_csym c_peratom fx fy fz
4 1 0.00409981 0.0390991 0.0302437 7.26497 -3.33292 0.0290688 0.120204 -0.00859947
3 1 0.0230927 0.00967838 0.0242361 1.13955 -3.2796 -0.666376 -0.488657 -0.140403
8 1 0.0472842 0.0327255 0.0260167 0.829134 -3.21213 0.547628 0.150407 0.158318
1605 1 0.0498685 0.00834829 0.0486474 1.58176 -3.25658 -0.843992 -0.254053 -0.419054
12 1 0.0860619 0.0250777 0.020842 1.14895 -3.29807 0.405799 0.577202 0.568177
7 1 0.0607883 0.00162875 0.0195925 0.444199 -3.27068 0.051074 0.0401456 -0.309495
1609 1 0.0864802 0.00214247 0.0424196 0.524789 -3.31245 0.430792 0.0231227 0.216696
1610 1 0.1148 0.0267909 0.0470865 0.882403 -3.36511 -0.579217 0.0583255 -0.033068
16 1 0.128235 0.0195774 0.0165921 0.629239 -3.21876 -0.1757 -0.382528 -0.194871
1614 1 0.152137 0.0201994 0.0412582 0.376238 -3.29229 0.111467 -0.0549186 0.0552218
95 1 0.153618 0.0429995 0.0175162 0.20993 -3.24296 0.441807 0.340322 0.192036
20 1 0.166271 0.0121958 0.0129536 7.04083 -3.37263 0.510605 0.00954909 -0.169384
1697 1 0.178931 0.0442168 0.0416153 0.458839 -3.29932 -0.372947 0.46527 0.23731
99 1 0.194451 0.0379632 0.0135041 7.49469 -3.35657 -0.256661 -0.214889 -0.60808
24 1 0.222484 0.0150396 0.0161047 0.913137 -3.29499 0.577213 -0.0174995 -0.0716557
1618 1 0.1945 0.0144378 0.0363546 6.89169 -3.23685 -0.85008 -0.541587 -0.103891
1701 1 0.216933 0.0395269 0.0378139 7.82903 -3.27437 0.870242 0.172973 0.104912
103 1 0.251176 0.0383554 0.020099 0.771793 -3.34076 -0.148296 0.0608069 0.0288518
28 1 0.281902 0.0162739 0.0235007 0.628042 -3.37768 -0.163639 -0.382271 -0.0892242
1622 1 0.248333 0.013885 0.0427872 0.939564 -3.33541 0.398348 0.0800331 -0.344405
1705 1 0.275131 0.0404832 0.046285 1.73718 -3.25584 0.593137 -0.0256643 -0.524813
1626 1 0.308039 0.015921 0.0475842 0.377048 -3.27668 0.0041827 -0.173657 -0.646576
1709 1 0.310702 0.040206 0.0267397 1.62482 -3.28624 -0.391698 -0.178356 -0.0584952
111 1 0.335688 0.0421291 0.0032583 2.71348 -3.27828 1.01438 -0.661019 0.104399
1630 1 0.340196 0.0133453 0.0255174 2.5731 -3.24251 -0.498945 0.471137 0.833231
1713 1 0.361627 0.0407808 0.0280944 1.34363 -3.30235 0.501007 -0.388387 -0.12314
1711 1 0.334267 0.0384526 0.0502232 1.38314 -3.29312 0.361013 0.396975 0.125964
36 1 0.367895 0.0168673 0.00645962 0.868544 -3.26887 0.324799 0.551615 -0.427178
115 1 0.395347 0.0417171 0.00670157 0.379618 -3.37974 0.211502 -0.0616307 0.304217
1634 1 0.394183 0.0187842 0.0304942 0.559764 -3.38081 0.456176 0.15575 -0.0416283
40 1 0.427187 0.0188855 0.00806287 0.446536 -3.3704 -0.423859 0.332292 0.283915
1717 1 0.426061 0.0423571 0.0318092 2.26771 -3.34013 -0.821938 -0.36498 -0.19993
119 1 0.454844 0.0438947 0.00914291 1.07386 -3.2059 -0.655155 -0.136181 0.472931
1638 1 0.452351 0.0176823 0.0345783 1.55366 -3.32644 -0.171408 0.212417 0.078908
44 1 0.483743 0.0210102 0.0149919 0.763147 -3.31331 -0.160043 -0.0884546 -0.120836
1721 1 0.474459 0.0448807 0.0345696 3.74916 -3.27976 0.857577 -0.441958 0.681717
1642 1 0.510622 0.0229139 0.0387042 6.7659 -3.23576 -0.954829 -0.283045 -0.0729637
123 1 0.508072 0.0466718 0.0170731 1.256 -3.26902 0.348529 -0.601888 -0.649379
48 1 0.538556 0.0219787 0.019004 0.849839 -3.28988 0.454187 0.043264 -0.543368
1645 1 0.537604 0.999788 0.0413665 6.78465 -3.26401 0.00475428 -0.398869 -0.459684
52 1 0.595021 0.0228161 0.0209382 0.993345 -3.36157 0.283897 -0.0708468 -0.0779923
127 1 0.568175 0.0463385 0.0190338 1.46927 -3.29004 -0.552344 0.24135 -0.233307
47 1 0.56803 0.998654 0.017052 1.1451 -3.35079 -0.241422 0.0690006 0.580376
1646 1 0.564191 0.0251219 0.0424968 1.22848 -3.24785 0.146534 -0.588556 -0.504793
1649 1 0.592209 0.99778 0.044058 1.80015 -3.29628 0.397532 0.708413 -0.380631
1650 1 0.622354 0.0252334 0.0434129 0.769352 -3.36009 -0.318864 0.0490003 0.275163
51 1 0.62655 1.0002 0.0205382 1.1908 -3.35246 -0.253352 0.456239 0.366628
56 1 0.651552 0.0289359 0.0226448 0.49664 -3.31996 0.184358 -0.617631 -0.338325
55 1 0.679947 0.00446401 0.0238118 0.943031 -3.33026 -0.0698001 0.488361 0.279392
1653 1 0.649902 0.00329926 0.0459488 0.743729 -3.35849 0.118277 -0.175687 -0.0428824
1654 1 0.677435 0.0294871 0.0470152 0.565047 -3.35166 0.00788943 -0.530492 -0.24752
60 1 0.706966 0.0292547 0.0260906 1.08291 -3.35409 0.151932 0.411727 0.176374
57 1 0.712786 0.00737961 0.00617441 1.52937 -3.28883 -0.132067 0.000213049 -0.819485
58 1 0.741534 0.0302358 0.00591905 0.856544 -3.29761 -0.364071 0.0688684 -0.00838181
59 1 0.739305 0.00752221 0.0294998 0.789217 -3.30934 0.0667449 0.60441 -0.233244
64 1 0.768085 0.0332435 0.028227 1.13095 -3.29583 -0.705725 -0.0171896 1.01002
61 1 0.771181 0.00939383 0.00775855 0.63398 -3.26719 -0.268028 -0.272291 -0.072067
63 1 0.795668 0.0104003 0.0323828 0.437241 -3.31451 -0.17009 -0.0567576 0.10832
62 1 0.794706 0.0337529 0.00835755 1.1538 -3.20223 0.83139 0.700257 -0.0145644
68 1 0.823784 0.0352398 0.0312145 1.2046 -3.31222 -0.5049 0.405669 0.602725
65 1 0.825452 0.0118275 0.0125582 1.03822 -3.25461 0.0639576 -0.05729 -0.644085
66 1 0.85314 0.0384663 0.0111775 1.05582 -3.20631 -0.215187 -0.588502 0.785917
67 1 0.853089 0.0131196 0.0342565 6.44175 -3.32146 0.166112 0.141355 0.379063
72 1 0.880254 0.0371552 0.040583 8.92829 -3.25693 -0.373136 -0.284217 -0.387393
69 1 0.88435 0.0152137 0.0150332 6.70602 -3.30148 -0.506861 0.167251 0.186988
70 1 0.907773 0.0406133 0.0185986 6.03927 -3.27408 0.201125 0.0529089 -0.480983
76 1 0.918435 0.0338844 0.0487817 9.98378 -3.2892 -0.151195 -0.130239 0.451139
73 1 0.925513 0.0129855 0.0260047 6.21752 -3.22201 -0.637761 -0.540811 -0.604163
71 1 0.891637 0.0065676 0.0486631 7.9075 -3.25177 -0.100618 0.660952 -0.200618
30476 1 0.936907 0.0412667 0.996679 6.24943 -3.2887 0.0277709 0.0760889 0.0802992
78 1 0.979698 0.0367945 0.00575158 8.42973 -3.31842 -0.101305 0.562934 -0.263274
74 1 0.95168 0.0380265 0.0294928 8.01706 -3.28239 -0.117259 0.299985 -0.276524
79 1 0.977706 0.0135417 0.0301712 6.7299 -3.25199 0.291261 0.247456 -0.644512
77 1 0.952016 0.0117301 0.00294424 7.55716 -3.30002 0.322226 0.0125214 0.0777003
83 1 0.0342117 0.0621292 0.0286161 6.995 -3.1751 -0.109704 -0.490864 0.645593
81 1 0.0151492 0.0678342 0.00172088 8.11277 -3.20031 0.0454895 -0.0125356 -0.0886505
82 1 0.0421107 0.0933442 0.00264487 8.45299 -3.31494 -0.180741 -0.208241 0.105919
158 1 0.0174519 0.0879551 0.0258877 9.61206 -3.21885 -0.638369 0.933033 0.118426
88 1 0.0604422 0.0872936 0.0322917 7.87269 -3.34733 -0.035368 0.101892 -0.0083335
87 1 0.0755091 0.0568879 0.0270743 0.631435 -3.32656 0.164154 -0.0897538 0.104738
92 1 0.100972 0.0814661 0.0278147 0.760362 -3.29455 0.143689 -0.221219 -0.09919
86 1 0.078574 0.0821164 0.000531321 0.639133 -3.303 -0.0439052 -0.0242498 0.417601
91 1 0.115671 0.0473534 0.0234977 2.48899 -3.27079 -0.51338 0.863619 -0.132985
96 1 0.141471 0.0749239 0.0220604 0.538954 -3.38592 -0.28308 0.0838893 0.230239
1693 1 0.140051 0.0522735 0.0476664 0.551321 -3.30461 0.455265 -0.00807769 -0.0458463
1694 1 0.166732 0.0775383 0.0472863 0.839896 -3.32426 -0.334458 -0.323322 -0.184517
100 1 0.179748 0.0686092 0.0187172 0.196801 -3.33484 0.178447 0.10311 0.0468829
1698 1 0.204495 0.071289 0.043147 0.210394 -3.33761 0.0565745 -0.0702858 -0.157119
104 1 0.221636 0.0635542 0.0144884 7.22764 -3.28135 -0.658961 -0.395457 0.00543105
183 1 0.24429 0.0898234 0.0167014 7.68896 -3.2243 0.421878 -0.0327154 0.30589
1702 1 0.243768 0.0657983 0.0380527 5.768 -3.31837 0.290978 -0.307901 0.49109
1781 1 0.231145 0.097191 0.0470127 1.92049 -3.26008 -0.334037 0.0893463 -1.09019
1785 1 0.272243 0.0896017 0.0376682 6.41654 -3.34363 -0.0457282 -0.0178903 0.0212516
1706 1 0.279915 0.0611949 0.0234051 3.07909 -3.33989 0.0193559 0.488289 -0.158442
1712 1 0.30483 0.0661585 0.0501033 4.85563 -3.30301 -0.102462 -0.995642 -0.605794
1789 1 0.308776 0.0873918 0.0247076 6.49441 -3.26607 -0.393317 -0.672815 -0.0322227
191 1 0.337206 0.0862996 0.00319053 0.285823 -3.28894 0.00256593 0.215056 0.0450631
1710 1 0.336376 0.0637013 0.02796 0.887428 -3.26395 -0.616349 0.48777 -0.475789
1793 1 0.363938 0.0887944 0.0275064 0.664684 -3.26323 -0.135609 -0.381807 0.00294607
1716 1 0.359305 0.0642862 0.0504814 0.992095 -3.27957 0.488182 0.0601354 0.569254
116 1 0.364794 0.06466 0.00516707 0.419197 -3.30961 0.297264 -0.222547 -0.125689
195 1 0.394242 0.0883053 0.00716153 0.288676 -3.36267 0.0143377 -0.0159996 -0.164604
1714 1 0.389516 0.063708 0.0283547 1.61691 -3.32887 0.722633 0.0570392 0.418364
120 1 0.425533 0.0644298 0.00809821 0.978322 -3.33862 -0.56254 0.368623 0.279379
1797 1 0.420475 0.0873298 0.0310715 0.989444 -3.32244 -0.260546 0.316303 -0.147707
1718 1 0.449681 0.0668292 0.034414 0.722151 -3.24875 -0.0319105 0.606082 -0.301333
199 1 0.449751 0.0908164 0.00860633 0.613577 -3.38691 0.403158 -0.0811138 0.192099
124 1 0.481441 0.0684213 0.0122371 0.7964 -3.27717 -1.06453 0.269589 0.193923
1801 1 0.474886 0.092525 0.0352209 0.630108 -3.35713 0.187596 -0.21475 -0.283645
1725 1 0.535797 0.0488504 0.0381855 1.74706 -3.28199 0.0497465 -0.204934 -0.0848865
1722 1 0.505942 0.0693789 0.0361431 0.802845 -3.25657 -0.286807 0.266425 0.50056
203 1 0.506128 0.0927224 0.0140534 0.258239 -3.34252 -0.0585494 0.427244 0.104182
128 1 0.536595 0.0712811 0.0149491 1.20918 -3.29181 -0.331274 -0.319553 0.55073
1805 1 0.529942 0.0936225 0.0402726 1.47274 -3.31299 0.510224 0.183058 -0.491187
1726 1 0.561738 0.0732861 0.0397318 0.855491 -3.31075 -0.238817 -0.428303 0.471997
207 1 0.561261 0.0965667 0.0178623 0.451039 -3.27307 0.0924716 -0.25389 -0.17097
132 1 0.591112 0.0731312 0.0200492 0.395008 -3.32273 0.444016 -0.0559332 -0.55559
1809 1 0.587007 0.0971884 0.0403076 0.563185 -3.29607 0.49044 0.453807 0.506046
211 1 0.61832 0.099895 0.0207754 0.529082 -3.34139 0.042882 -0.221252 0.00019414
1729 1 0.591784 0.0497595 0.0424958 0.623145 -3.32743 0.206631 -0.071972 0.3926
1730 1 0.618373 0.0763684 0.0426476 0.895268 -3.32394 -0.258597 -0.559136 0.0649339
131 1 0.622082 0.0500311 0.0207449 0.204252 -3.32698 -0.469771 0.066791 -0.0918658
136 1 0.64834 0.0752707 0.0212916 0.494177 -3.25761 -0.129105 0.208091 0.025417
135 1 0.676975 0.0538527 0.0228097 0.882073 -3.28947 0.673476 -0.272665 0.214521
215 1 0.675418 0.102373 0.0246871 0.924104 -3.26862 0.574838 -0.298127 0.000345205
1733 1 0.647709 0.0523648 0.0431785 0.836233 -3.27148 0.00206003 -0.0181363 0.58062
1734 1 0.672451 0.078551 0.0448875 1.24745 -3.28934 0.701579 -0.413236 0.390433
1813 1 0.644036 0.0994382 0.0442244 0.491744 -3.27515 -0.0230183 0.666566 0.084248
140 1 0.706248 0.0790035 0.0256873 0.622909 -3.32163 -0.382873 -0.348699 -0.181923
137 1 0.71311 0.0520673 0.00291234 2.3888 -3.31806 -0.633012 0.44963 -0.0255556
139 1 0.735902 0.0549914 0.02695 0.320246 -3.35592 0.0231078 0.175656 0.245723
138 1 0.736608 0.0791665 0.00465239 0.523353 -3.32649 0.246885 0.000511806 0.00897755
1737 1 0.703365 0.0542586 0.0465387 0.650664 -3.35893 -0.0256248 0.0465288 0.207416
144 1 0.760895 0.0829433 0.0295009 1.4368 -3.31685 0.0386595 -0.813193 -0.396517
141 1 0.766537 0.0567684 0.006957 0.413664 -3.2857 -0.286765 0.437587 0.00490129
143 1 0.793145 0.059436 0.0288116 1.21171 -3.29393 -0.346161 -0.364441 0.564747
142 1 0.793536 0.0845458 0.00807897 0.752146 -3.33889 -0.200439 -0.143799 0.0500532
145 1 0.821636 0.0609145 0.00889929 0.589185 -3.28337 0.162203 0.112349 0.212206
148 1 0.817941 0.0828944 0.0328775 0.351529 -3.29521 0.351413 0.146552 0.363068
147 1 0.848824 0.0593803 0.0339988 1.04594 -3.3614 0.156793 0.604827 0.316742
146 1 0.846333 0.0863432 0.0126105 0.984294 -3.32663 0.756202 -0.327482 -0.0502766
149 1 0.878254 0.0630257 0.0131941 1.07301 -3.24986 -0.161864 0.206773 0.820174
152 1 0.876794 0.0874528 0.0385447 1.29835 -3.30718 -0.671657 -0.367416 -0.349268
151 1 0.903055 0.0624866 0.0397913 4.50388 -3.20283 0.365135 0.563534 -0.173107
150 1 0.903252 0.0873428 0.0163384 0.742044 -3.29814 0.347252 0.402288 0.0311537
156 1 0.93011 0.0890259 0.0413163 0.463037 -3.29154 -0.283694 -0.268723 0.240814
153 1 0.932768 0.0657571 0.0202236 5.53179 -3.27925 0.358705 -0.0420321 -0.329067
155 1 0.961973 0.0671281 0.0447994 11.8703 -3.30526 -0.376312 -0.476348 -0.257399
154 1 0.958436 0.0922422 0.0208816 1.01162 -3.24593 0.276569 -0.341148 -0.162017
157 1 0.984744 0.0680657 0.0193854 13.2548 -3.17446 0.198078 -0.517632 0.910006
30555 1 0.959415 0.066152 0.99743 5.60672 -3.21742 0.233449 0.316106 -0.508197
30560 1 0.987478 0.0923471 1.00043 1.39655 -3.3068 0.158172 0.249036 -0.464742
161 1 0.0389772 0.115836 0.0262387 6.3657 -3.30604 0.370324 0.0980898 -0.279575
238 1 0.0118289 0.140163 0.0233768 0.61166 -3.30898 0.381477 0.249672 0.133387
30564 1 0.0426729 0.141479 0.00305007 0.571215 -3.30141 -0.0490827 0.241065 0.0728207
30639 1 0.0126928 0.119204 0.999903 6.36125 -3.28032 0.518239 -0.716048 0.2052
162 1 0.0697744 0.140879 0.028893 5.89658 -3.24449 0.00312075 -0.0232253 -0.549531
165 1 0.0666991 0.117904 0.00419664 8.00071 -3.21707 0.402238 -0.401718 0.231781
167 1 0.0877544 0.111269 0.0316078 6.15051 -3.26811 -0.635283 0.224616 0.265768
166 1 0.0935488 0.139757 0.0056213 6.2524 -3.2457 0.270867 0.179075 -0.0734721
169 1 0.104754 0.106786 0.00273735 0.444589 -3.30654 -0.311026 -0.0363435 -0.210493
172 1 0.112902 0.136245 0.0345331 7.53836 -3.32025 -0.0348775 0.343136 0.26019
171 1 0.125872 0.106489 0.0287765 0.617109 -3.26253 0.615981 -0.157744 -0.178674
176 1 0.152436 0.132365 0.029224 0.942532 -3.29777 0.0161597 0.0205354 0.253914
170 1 0.13108 0.131563 0.003586 0.665738 -3.28076 -0.226123 0.385368 -0.073808
175 1 0.167489 0.101521 0.0240167 0.296289 -3.2977 -0.282176 -0.0661167 0.278986
179 1 0.206442 0.0952866 0.0202819 0.255064 -3.32901 -0.193891 0.00704625 0.282628
180 1 0.194267 0.126695 0.0263295 1.6247 -3.24822 -0.499062 -0.114027 -0.145853
1777 1 0.191182 0.103177 0.0489884 0.348454 -3.32756 0.215583 -0.0717218 -0.0993161
1778 1 0.216785 0.129005 0.0502549 1.18025 -3.26402 0.194791 -0.190239 -0.246835
184 1 0.232634 0.121331 0.0211453 6.14929 -3.28453 -0.0564652 -0.371392 0.288493
1782 1 0.256764 0.120847 0.0460096 2.59126 -3.26076 -0.0551659 0.383122 -1.00438
188 1 0.270563 0.115487 0.0150783 6.999 -3.19705 -0.250269 -0.794781 0.423653
263 1 0.255893 0.14591 0.015476 1.45418 -3.20402 0.219494 -0.0988605 -0.168944
1786 1 0.298656 0.115 0.0357653 1.68659 -3.28473 -0.3951 0.303749 0.309924
267 1 0.29273 0.137284 0.00882521 2.59981 -3.18225 1.31062 0.695086 0.677934
1865 1 0.281832 0.147229 0.0413045 0.935784 -3.26286 -0.274664 -0.579612 -0.545474
192 1 0.308602 0.10744 0.000686437 7.78065 -3.34953 -0.170653 0.606452 0.0179306
1869 1 0.322271 0.140092 0.0337477 0.927525 -3.35412 -0.499145 0.248874 0.0755849
271 1 0.332282 0.136445 0.00203559 7.95015 -3.2736 0.451888 -0.833369 0.579359
1790 1 0.336554 0.109701 0.0264098 8.0881 -3.27675 -0.47042 0.508926 -0.0520606
196 1 0.36418 0.112631 0.00515435 0.407231 -3.30642 0.0358898 -0.235258 -0.243608
1873 1 0.359182 0.136036 0.0267825 7.60612 -3.32308 0.37164 0.0334842 0.124994
1794 1 0.389896 0.112971 0.0295656 0.386683 -3.31862 -0.084314 -0.0117032 -0.135291
275 1 0.390488 0.136725 0.00567563 0.207831 -3.30687 0.339768 -0.336626 -0.10176
200 1 0.421096 0.112674 0.00923756 0.699167 -3.30762 -0.145014 0.250309 -0.528053
1877 1 0.416936 0.137061 0.0299967 0.448633 -3.32818 -0.0458155 -0.0969425 0.0669674
1798 1 0.447251 0.115009 0.0312949 0.556362 -3.33632 -0.0585193 -0.0388736 0.400332
279 1 0.447613 0.140316 0.0100994 1.04483 -3.27616 -0.449636 -0.638119 -0.183225
204 1 0.477676 0.11749 0.0103109 0.887782 -3.29333 -0.286625 -0.596986 0.630966
1881 1 0.474289 0.139695 0.0348671 0.626528 -3.35891 -0.157417 0.147658 -0.259438
1802 1 0.502417 0.116405 0.0363206 0.454103 -3.31936 0.0424183 0.332044 -0.388595
283 1 0.503965 0.142965 0.0128087 0.89665 -3.30297 -0.0837459 -0.335124 0.0167119
208 1 0.532648 0.11745 0.0146778 0.730931 -3.33054 -0.265669 0.583682 0.315956
1885 1 0.528375 0.14491 0.0355077 1.10473 -3.31418 -0.0827984 -0.90504 0.151762
1806 1 0.556653 0.120714 0.038776 0.545231 -3.33006 -0.36719 -0.303682 -0.0302219
287 1 0.558223 0.147378 0.0137929 2.76057 -3.30904 0.0423522 -0.783435 -0.169563
212 1 0.587199 0.120583 0.0167169 1.15472 -3.26478 0.150403 0.313819 0.685473
1810 1 0.612582 0.124203 0.0435443 1.33305 -3.31078 0.0561255 -0.725756 -0.231524
1889 1 0.581281 0.144054 0.0397466 1.50731 -3.26516 0.581011 0.396656 -0.26974
291 1 0.613172 0.144455 0.020047 1.62193 -3.2952 0.169737 0.634337 0.0653372
216 1 0.645072 0.124435 0.021946 0.356882 -3.30888 0.18086 -0.107948 0.129645
1893 1 0.640981 0.146879 0.0429331 1.05437 -3.33894 0.584692 0.137067 0.480283
295 1 0.674499 0.150409 0.0232509 0.619058 -3.34523 -0.18563 -0.20841 0.402415
1814 1 0.674247 0.12483 0.0447367 1.08799 -3.33054 -0.518428 0.305558 0.58337
220 1 0.704926 0.12819 0.0256133 0.920178 -3.30422 -0.212322 -0.429105 -0.531253
217 1 0.706677 0.102327 0.00348798 0.556465 -3.29564 -0.315681 0.346285 -0.19124
219 1 0.731626 0.103457 0.024916 1.10843 -3.27223 0.469546 0.451778 0.548081
218 1 0.735876 0.128161 0.00163147 1.60406 -3.30506 -0.519428 -0.208756 0.443906
1897 1 0.700149 0.149958 0.0481293 0.257515 -3.28207 -0.386533 0.287223 -0.0962016
299 1 0.732601 0.150909 0.0274395 0.705791 -3.30369 -0.104693 0.44128 -0.318827
224 1 0.761051 0.127313 0.027813 1.20655 -3.35667 -0.0483167 0.324733 0.353375
221 1 0.762898 0.106139 0.00427267 1.06652 -3.2962 0.250751 -0.183747 0.512986
223 1 0.788311 0.104453 0.0325522 1.44915 -3.29176 0.304252 0.576254 -0.255171
222 1 0.789741 0.1329 0.00811371 0.757705 -3.27859 0.0837236 -0.537622 0.0132939
228 1 0.812493 0.131759 0.0340481 1.12106 -3.34669 0.470414 -0.150414 0.0473713
225 1 0.820161 0.10935 0.0118729 0.793001 -3.28434 -0.520211 0.15184 0.0858402
227 1 0.844783 0.108201 0.0358765 0.558422 -3.31588 0.106085 0.299148 0.0560394
232 1 0.87215 0.137288 0.0396304 1.76308 -3.30271 -0.153376 -0.634213 -0.629925
226 1 0.843013 0.136559 0.0134218 1.29806 -3.32832 0.536743 -0.52757 -0.0361842
229 1 0.875314 0.111832 0.0168769 0.664031 -3.34697 -0.413446 -0.0830227 -0.482245
231 1 0.901569 0.112345 0.0400056 0.323606 -3.29169 0.0538801 -0.154001 0.21662
236 1 0.927218 0.136453 0.0408439 0.533073 -3.33172 0.35195 0.460504 0.199847
233 1 0.930773 0.113254 0.0184635 0.320967 -3.31138 -0.0872953 0.275687 -0.0986801
230 1 0.900875 0.135439 0.0181461 0.868108 -3.29547 0.138318 0.410628 -0.0472847
235 1 0.955552 0.11386 0.0440526 0.68356 -3.34438 0.311959 0.327865 0.0932517
234 1 0.95831 0.139003 0.019039 0.520326 -3.34319 -0.20831 -0.0508012 0.367123
240 1 0.983063 0.139696 0.0441758 0.536595 -3.28393 -0.345725 -0.163577 -0.0712187
237 1 0.987587 0.114685 0.0237793 1.4028 -3.32528 -0.0705923 -0.148421 -0.159392
242 1 0.040963 0.189011 0.00240627 0.609876 -3.28922 0.186513 0.342748 -0.0229422
241 1 0.0419031 0.16673 0.0253049 0.98047 -3.34602 -0.440884 -0.586046 0.214716
318 1 0.011688 0.188387 0.0215516 0.471082 -3.32314 -0.102051 -0.00713286 0.462318
30719 1 0.0151803 0.163878 -0.000791649 0.518573 -3.28649 -0.452834 0.0753038 0.503331
248 1 0.0684912 0.189185 0.0289347 0.699225 -3.28933 -0.133771 0.313407 -0.204732
245 1 0.0706739 0.165434 0.00467964 0.86117 -3.28901 -0.00588272 0.261325 0.23353
247 1 0.0961807 0.165421 0.0301892 7.13191 -3.24174 0.0371376 0.121978 0.204289
246 1 0.0977081 0.191389 0.00739224 1.6236 -3.29229 -0.0289799 0.145944 0.00699906
249 1 0.118679 0.164675 0.0075246 7.16781 -3.24249 0.458058 -0.143175 -0.506066
252 1 0.121829 0.191319 0.0315296 6.10476 -3.21367 0.53981 0.148843 -0.264114
251 1 0.138427 0.16254 0.0371268 9.64389 -3.33129 0.121594 -0.272947 -0.104771
256 1 0.164321 0.188162 0.0383244 8.40608 -3.29224 0.0127479 -0.375043 -0.391082
250 1 0.147551 0.189815 0.00894197 8.40698 -3.23746 -0.547066 0.575655 0.027833
255 1 0.179861 0.157482 0.0254808 3.22446 -3.32556 -0.399421 0.221046 0.657369
253 1 0.156156 0.160787 0.00122605 3.44668 -3.25031 -0.147587 -0.487555 -0.138835
259 1 0.219464 0.150708 0.0210227 1.27515 -3.21825 -0.600722 0.465271 -0.0279351
260 1 0.205379 0.183057 0.0262173 1.70216 -3.29887 -0.283325 0.0468124 0.0215899
254 1 0.183197 0.185816 0.0012963 2.69297 -3.21355 -0.174352 -0.446804 -0.293839
264 1 0.24398 0.177488 0.0209471 0.450644 -3.29543 -0.0765352 -0.0405375 0.10397
268 1 0.282523 0.168363 0.0164926 0.92509 -3.28661 0.0141506 0.378663 -0.0193406
1866 1 0.307534 0.170461 0.0407078 0.878153 -3.1925 -0.492953 -0.159853 -0.611535
272 1 0.320016 0.164855 0.00879701 1.03766 -3.26374 0.461673 0.420992 0.65686
276 1 0.362758 0.159575 0.00409886 6.93947 -3.3134 -0.352241 0.187651 0.0890615
351 1 0.347163 0.190722 0.0121099 1.12104 -3.33656 -0.105768 -0.665076 -0.586641
1870 1 0.345624 0.167116 0.0348443 0.892788 -3.28862 0.307049 -0.716664 -0.229818
347 1 0.304935 0.195552 0.0174964 2.01233 -3.28672 0.324261 -0.215492 -0.326717
1953 1 0.371187 0.190004 0.0372921 1.32261 -3.27735 0.207403 0.0796903 -0.353279
355 1 0.389688 0.183242 0.00560041 6.75262 -3.27308 -0.407865 0.234904 -0.217832
1874 1 0.387503 0.159687 0.0283614 6.81072 -3.31513 -0.409559 -0.0199121 0.235354
280 1 0.416344 0.160815 0.00515263 1.18494 -3.25939 0.600578 0.22676 0.460584
1957 1 0.412552 0.184325 0.0302708 7.0962 -3.29212 -0.236261 0.1537 -0.441043
359 1 0.444269 0.186452 0.0090854 0.48916 -3.36201 -0.380225 -0.0926203 -0.26654
1878 1 0.442594 0.162073 0.0331267 0.663807 -3.28261 -0.0597332 -0.231438 -0.515775
284 1 0.471492 0.163032 0.0113809 1.02744 -3.28132 0.533551 0.511782 -0.208052
1961 1 0.470653 0.186641 0.0329657 0.895956 -3.2296 -0.887094 0.281437 0.0405738
1882 1 0.499806 0.167331 0.0347743 1.02321 -3.26727 -0.0224542 -0.654624 -0.362876
363 1 0.497124 0.189243 0.0111934 0.896539 -3.27845 0.432364 -0.0986063 -0.237824
288 1 0.528254 0.168337 0.0114742 0.959353 -3.30106 0.104044 -0.13325 0.348559
1886 1 0.554071 0.167232 0.0361556 0.998618 -3.21615 0.0220573 0.588762 0.235435
367 1 0.554307 0.19269 0.0140503 0.705912 -3.28878 0.562869 -0.197222 0.30241
1965 1 0.527534 0.191102 0.0365445 1.49456 -3.32272 -0.311147 0.0961062 -0.400022
292 1 0.587331 0.169764 0.0195685 2.48649 -3.35308 -0.0883799 -0.0758918 -0.488281
1969 1 0.579214 0.192408 0.040602 1.45409 -3.35503 0.291757 0.091513 -0.417449
1890 1 0.614001 0.169845 0.0433557 2.73806 -3.2717 -1.05976 -0.0143655 0.0934034
371 1 0.611891 0.194295 0.0172923 0.897609 -3.26414 -0.326107 -0.0580126 0.058302
296 1 0.64062 0.171785 0.0227487 1.58573 -3.23923 0.764311 -0.332678 -0.719612
1973 1 0.637263 0.195549 0.0405463 1.5905 -3.28651 0.383953 0.478332 0.827236
1894 1 0.67035 0.174302 0.0466607 1.38457 -3.29983 0.0450208 -0.604709 -0.320695
375 1 0.672966 0.195796 0.0238756 2.17507 -3.34875 -0.428968 0.0077403 -0.10813
300 1 0.703034 0.173776 0.0253063 1.23139 -3.3785 -0.107796 0.0516942 0.0484111
1898 1 0.727542 0.173071 0.0517482 1.513 -3.30254 -0.220195 0.23903 -0.214501
1977 1 0.698965 0.196807 0.0498227 2.48191 -3.32601 -0.217475 -0.12837 -0.24483
379 1 0.723644 0.201741 0.025195 2.88332 -3.27786 0.0609025 -0.495993 0.328651
298 1 0.731308 0.177539 0.00282623 0.972242 -3.32858 -0.231345 -0.313677 0.378999
304 1 0.756737 0.176933 0.0296334 0.521629 -3.33587 -0.319859 -0.109767 -0.0114266
303 1 0.787532 0.155946 0.0323202 1.36764 -3.26749 -0.671167 -0.448879 -0.0808862
302 1 0.78404 0.178125 0.00713227 1.47485 -3.30683 0.0902082 0.555554 0.340669
1981 1 0.747932 0.200813 0.0501677 2.73551 -3.33366 0.404823 -0.11491 0.410746
301 1 0.760265 0.152927 0.00552238 0.650387 -3.24995 -0.0591311 0.419049 0.420935
308 1 0.812156 0.179684 0.0347096 0.870521 -3.34223 -0.231225 0.670857 -0.36966
305 1 0.812648 0.157538 0.0097472 1.1711 -3.27784 0.657406 0.214768 0.0324477
307 1 0.841664 0.158241 0.0342187 0.850961 -3.29109 -0.392267 -0.123709 0.561737
312 1 0.868608 0.183224 0.0374381 0.333737 -3.23261 -0.500875 0.377725 -0.0624124
306 1 0.841839 0.182748 0.0128177 0.295449 -3.28837 -0.0607839 -0.211848 0.165594
309 1 0.871199 0.161463 0.0156341 0.768163 -3.24851 -0.275329 -0.730384 -0.470474
311 1 0.896516 0.162856 0.03818 1.93437 -3.25432 0.677185 -0.905441 0.301058
316 1 0.925453 0.184641 0.041043 0.526489 -3.29917 0.0316348 0.0840518 -0.66487
313 1 0.927872 0.161157 0.0174668 0.513463 -3.33231 0.187184 -0.0499441 0.586432
310 1 0.898877 0.183869 0.0156865 0.470401 -3.27679 -0.109869 0.720768 0.311623
315 1 0.95479 0.162451 0.0421051 0.113905 -3.36438 -0.011967 -0.110321 -0.0605059
320 1 0.982464 0.187253 0.0448612 0.533262 -3.3085 -0.141308 -0.227193 -0.486221
317 1 0.985433 0.16346 0.0214473 0.413637 -3.33582 -0.106152 0.157683 -0.182508
314 1 0.956088 0.184423 0.0177051 1.26887 -3.36492 -0.222218 0.558063 0.407772
323 1 0.0386829 0.215278 0.025037 1.19438 -3.27634 -0.175966 -0.732189 0.132754
324 1 0.00950881 0.235948 0.0224812 0.346984 -3.3087 -0.508062 0.0666228 0.0300418
399 1 0.00592861 0.211659 0.0452337 0.997024 -3.3142 0.561556 0.0973125 -0.00268445
321 1 0.0123628 0.212354 0.999593 0.271547 -3.37272 0.219107 0.0385773 0.136723
322 1 0.0376196 0.238575 0.00195447 1.22382 -3.25652 0.856509 0.046914 -0.0527885
328 1 0.0655153 0.239663 0.0245375 2.00639 -3.31433 0.45929 -0.0665766 0.517244
325 1 0.0682099 0.213068 0.00691316 2.16989 -3.30233 0.393061 0.40403 -0.616367
327 1 0.0948732 0.21604 0.0302439 0.6807 -3.26755 -0.0661291 0.246041 -0.107638
332 1 0.118817 0.242764 0.0312625 0.726143 -3.30942 0.282677 -0.350618 -0.155552
326 1 0.0972147 0.240616 0.00413107 1.59043 -3.30048 -0.215853 0.0445006 0.590549
329 1 0.123783 0.217191 0.0102392 6.09824 -3.31491 0.451862 0.0324919 -0.223085
331 1 0.148011 0.218528 0.034987 6.36498 -3.26283 0.254665 0.326253 -0.626816
336 1 0.175373 0.243229 0.0349988 6.06317 -3.30618 0.033363 -0.277491 0.028431
330 1 0.150453 0.243826 0.00994638 1.52141 -3.28636 -0.49735 -0.47462 0.382488
333 1 0.17418 0.21724 0.010942 10.2518 -3.27702 -0.315206 -0.128926 0.404821
335 1 0.191052 0.21145 0.0399384 8.58719 -3.29578 0.0202446 0.429306 -0.0999902
334 1 0.202716 0.240072 0.0122038 9.01291 -3.25036 -0.461359 0.0820125 0.134034
340 1 0.219467 0.238424 0.041093 7.09951 -3.30804 -0.022996 -0.218748 0.232211
337 1 0.208593 0.208197 0.000273627 6.09849 -3.15696 0.316838 0.442975 0.401412
339 1 0.228103 0.210545 0.0253809 7.4239 -3.25802 0.177713 -0.003282 0.619608
338 1 0.236839 0.232321 0.00408153 1.12063 -3.23887 0.375578 0.00581015 -0.162884
343 1 0.266892 0.203402 0.0228225 1.89564 -3.26746 0.289894 -0.133878 0.00824569
344 1 0.259706 0.233954 0.0294449 2.93484 -3.27481 -0.646555 0.210338 -0.333517
348 1 0.29737 0.227033 0.0216768 1.82834 -3.24804 -0.133099 0.0466839 0.474141
1945 1 0.292204 0.20328 0.0462659 0.511097 -3.30464 -0.044943 0.185603 0.175767
342 1 0.274383 0.225762 0.998345 0.512022 -3.26989 -0.414998 -0.151726 -0.161003
1949 1 0.329578 0.194952 0.0402757 1.62331 -3.23697 0.829345 0.810748 0.490106
352 1 0.335516 0.219393 0.0176636 0.906402 -3.2682 -0.0129749 0.203086 0.231849
1946 1 0.318644 0.227383 0.046671 0.599603 -3.28784 0.320896 -0.187133 0.201811
1950 1 0.357508 0.221354 0.0430658 0.963753 -3.29794 0.184679 -0.24538 -0.215826
431 1 0.361219 0.244221 0.0184212 1.62951 -3.26589 -0.0310619 -0.0304468 0.436966
356 1 0.376115 0.211866 0.0111691 2.70106 -3.2557 -0.534732 0.397036 -0.354223
1954 1 0.395742 0.21646 0.0352469 1.89998 -3.29103 0.633047 0.0358713 0.394388
360 1 0.41538 0.20994 0.00471982 6.34689 -3.31042 0.0191601 -0.106397 0.461194
435 1 0.399204 0.239886 0.0115756 0.520639 -3.27348 0.639264 0.164344 0.236687
2033 1 0.387234 0.248611 0.0406665 2.47964 -3.27276 -0.726435 -0.319942 0.0209675
2037 1 0.424721 0.239795 0.0361666 1.44844 -3.29876 0.0519584 0.517875 -0.029201
439 1 0.440091 0.23637 0.00461766 7.14381 -3.32354 -0.254071 -0.0639672 0.519669
1958 1 0.437847 0.210248 0.0320582 8.04743 -3.29605 -0.0172247 -0.261161 -0.648712
364 1 0.46906 0.211716 0.00909873 0.336872 -3.3044 -0.299466 0.103615 0.259006
2041 1 0.463197 0.235524 0.0316559 8.3762 -3.32463 0.0681065 0.10788 -0.173967
1962 1 0.495736 0.210214 0.0336555 1.4728 -3.31683 0.14147 0.754855 0.0835217
443 1 0.493977 0.237187 0.0098602 0.410553 -3.29458 0.153084 0.00909968 0.107422
2045 1 0.518369 0.238104 0.0351973 0.84456 -3.34083 0.675388 -0.147563 -0.479449
368 1 0.52639 0.213564 0.0110298 1.34712 -3.31039 -0.41859 0.566406 0.689982
1966 1 0.551951 0.217025 0.0398584 1.67471 -3.30355 -0.440499 -0.168834 -0.445598
447 1 0.55308 0.238726 0.0142958 1.13938 -3.35232 -0.577568 0.351905 0.119579
372 1 0.581082 0.215683 0.0173123 0.876124 -3.2752 -0.233233 0.176363 -0.463856
2049 1 0.575164 0.241243 0.0401366 1.0787 -3.28382 0.213221 0.193916 -0.383377
1970 1 0.605384 0.217483 0.0392758 0.81931 -3.24299 0.393636 -0.115836 0.782776
451 1 0.607702 0.23943 0.0184644 1.58827 -3.25275 -0.557416 0.927818 -0.0239959
376 1 0.636765 0.218417 0.0192505 1.0485 -3.25265 0.874554 0.140803 0.391308
2053 1 0.633412 0.242595 0.0414863 0.513859 -3.33462 0.461352 0.391472 0.0353467
1974 1 0.664975 0.220242 0.0441413 0.59994 -3.37828 -0.0860251 -0.0012961 0.0690843
455 1 0.665282 0.246487 0.0223939 0.692224 -3.26331 -0.0850526 -0.534 0.0103151
380 1 0.694951 0.222921 0.0246753 0.902656 -3.29826 0.0122893 0.144558 -0.0349203
2057 1 0.691128 0.246313 0.0452695 0.835703 -3.25931 0.114312 -0.294477 0.436193
1978 1 0.720686 0.223338 0.0495008 0.964771 -3.29915 0.233559 0.226927 -0.257745
459 1 0.725607 0.248021 0.0271283 1.82457 -3.28695 -0.753042 -0.224132 -0.198583
457 1 0.695298 0.246507 0.00213512 0.571659 -3.33303 0.172044 0.172967 -0.146917
378 1 0.723627 0.223573 0.00332943 1.00769 -3.32097 0.351251 0.253435 0.0555619
384 1 0.753086 0.225366 0.0295153 0.686788 -3.31654 -0.213849 -0.00659602 -0.161379
381 1 0.755579 0.200533 0.00808833 1.61492 -3.2878 0.208951 0.491689 -0.574722
383 1 0.78075 0.202762 0.0314829 0.339848 -3.3004 0.189497 -0.594759 0.182757
388 1 0.804931 0.226168 0.032847 1.98276 -3.23286 0.655833 0.5184 -0.123138
382 1 0.782919 0.226603 0.00790743 0.487901 -3.31415 0.00501102 0.120946 -0.0931004