ITEM: TIMESTEP
8250
ITEM: NUMBER OF ATOMS
32000
ITEM: BOX BOUNDS pp pp pp
3.2126674688649897e+00 7.7787332531135050e+01
-1.6034097350183600e+00 8.2603409735018602e+01
-1.6094307959589216e+00 8.2609430795958318e+01
ITEM: ATOMS id type xs ys zs c_csym c_peratom fx fy fz
8 1 0.0489877 0.0261717 0.0225949 1.02844 -3.3101 0.361375 -0.0552202 0.448954
4 1 1.00232 0.0252125 0.0255779 0.930367 -3.33053 -0.637774 0.223488 -0.762282
3 1 0.026206 0.000497752 0.0239999 0.255562 -3.29949 0.128509 -0.17351 0.119823
1605 1 0.0504169 0.000208559 0.0504718 0.639145 -3.29984 0.313811 -0.00582119 -0.31658
12 1 0.10326 0.0252272 0.0228637 1.8091 -3.34003 -0.856794 -0.0884228 0.170516
87 1 0.0762636 0.0501257 0.025055 0.507703 -3.25131 -0.30788 -0.081985 0.325383
1606 1 0.0753059 0.0261662 0.048604 0.457967 -3.36146 0.124073 -0.401505 -0.107163
7 1 0.0728629 0.000480846 0.0225824 0.908648 -3.34849 0.322476 0.170886 0.327154
16 1 0.148327 0.0261934 0.0215593 1.74904 -3.24783 0.646186 -0.351246 0.446568
1610 1 0.126449 0.0258859 0.0466743 0.546289 -3.27685 -0.284028 -0.274412 0.504199
10 1 0.125195 0.0250919 0.998177 0.462203 -3.22028 0.168629 0.170605 -0.0973028
11 1 0.126795 0.998586 0.0231061 1.39046 -3.26804 -0.189413 0.529721 0.218249
20 1 0.200746 0.0248418 0.0247519 0.518622 -3.34094 -0.111725 0.0262417 0.100942
24 1 0.249544 0.0244059 0.0231583 0.760326 -3.32543 0.0389339 0.603632 0.446936
1618 1 0.224757 0.0237347 0.050997 0.907157 -3.31118 0.338283 0.566779 -0.103852
23 1 0.275952 1.00157 0.0254411 0.5673 -3.33497 0.213675 -0.378086 0.0339383
103 1 0.271842 0.0519109 0.0238825 2.23269 -3.2604 0.473096 -0.752006 0.240177
99 1 0.223049 0.0501503 0.0215267 2.11387 -3.27904 0.55272 -0.22386 0.754961
28 1 0.298673 0.0265978 0.0264007 1.26492 -3.3362 -0.011551 -0.20441 -0.169332
1705 1 0.297741 0.0489809 0.0496346 1.09196 -3.27954 0.209961 0.0144287 0.382989
107 1 0.324681 0.0499389 0.0279851 1.56239 -3.27962 0.261722 -0.162111 -0.735934
27 1 0.324957 -0.000324453 0.0252051 0.520359 -3.33203 -0.0428065 0.0208041 0.292083
105 1 0.301672 0.0490302 -0.00128176 2.55014 -3.26906 -0.137838 0.362899 0.89399
32 1 0.351547 0.0241958 0.0247765 0.760077 -3.29451 -0.0605224 0.199043 0.431866
30 1 0.374163 0.0247279 0.999526 0.677211 -3.31999 0.291613 -0.0111722 -0.0159516
31 1 0.377168 1.00043 0.026926 0.800225 -3.3683 0.152606 -0.099897 -0.107305
1630 1 0.375297 0.0254918 0.0506651 0.21362 -3.30764 -0.0574802 0.23179 -0.0943103
1629 1 0.350307 0.000561041 0.0505748 0.164318 -3.30024 -0.205972 -0.234631 -0.246969
36 1 0.400561 0.0270646 0.026113 1.3008 -3.34102 0.0338367 -0.512424 0.0340494
35 1 0.422458 -0.0011678 0.0239796 1.37438 -3.34605 0.273433 0.523782 0.521129
1633 1 0.399856 1.00179 0.0534426 1.51821 -3.25761 -0.0789085 -0.37723 -0.489177
40 1 0.449401 0.0244595 0.0244171 0.351621 -3.35205 -0.489823 -0.160905 0.188951
1717 1 0.450434 0.050184 0.0515953 0.715868 -3.32598 0.328539 -0.199416 -0.127496
44 1 0.500137 0.0241891 0.0244866 0.479822 -3.27251 -0.08814 -0.376986 -0.0391765
39 1 0.474041 -0.0011111 0.0234997 0.375541 -3.30684 -0.0356304 -0.189341 0.0701644
1638 1 0.475267 0.0244287 0.0499142 0.248106 -3.27457 -0.471084 0.258795 0.231088
38 1 0.473982 0.0226832 0.000226759 0.480856 -3.2964 0.139737 0.413876 -0.362008
48 1 0.550911 0.0251656 0.0245986 0.477188 -3.30546 -0.22346 0.162866 0.140984
43 1 0.524849 0.999825 0.023828 0.234876 -3.32628 -0.126949 0.070442 0.343382
1645 1 0.55065 0.00100194 0.0485837 0.933893 -3.28933 -0.338121 -0.507944 0.674703
52 1 0.597141 0.0246677 0.0227202 1.43104 -3.31103 0.188621 0.101029 0.307073
47 1 0.574126 0.99971 0.025661 0.709369 -3.25338 0.280922 -0.213776 -0.79847
1646 1 0.576566 0.0238158 0.0505834 1.33958 -3.28623 -0.0388181 0.501306 0.0283147
1649 1 0.599063 0.998719 0.0499556 0.550476 -3.30938 0.582759 0.251371 -0.0429421
49 1 0.598481 1.00046 0.997688 0.677462 -3.31855 -0.306639 -0.301955 0.287215
56 1 0.650487 0.0232881 0.0238259 1.04184 -3.279 -0.472302 0.342228 0.250192
1653 1 0.648234 0.997718 0.048226 1.03927 -3.26843 0.011486 0.215233 0.342807
131 1 0.623531 0.0489675 0.0268516 1.46839 -3.30151 0.288916 0.420552 -0.840421
51 1 0.623385 0.998673 0.0229783 0.470437 -3.32187 -0.137053 0.290049 0.402259
1650 1 0.625468 0.0255773 0.047445 1.35206 -3.33485 -0.261572 -0.588763 0.693322
55 1 0.673626 0.998556 0.0264732 0.961135 -3.27655 0.518449 0.222686 -0.576388
60 1 0.701647 0.0265623 0.0251188 1.41895 -3.253 -0.739351 -0.455629 0.456145
1654 1 0.672579 0.0242611 0.0500926 1.148 -3.35323 0.141964 0.0386767 -0.0828092
64 1 0.75063 0.0255285 0.0233726 0.570748 -3.22974 -0.228745 0.195168 0.583271
59 1 0.725434 0.00230703 0.0251096 0.902709 -3.29516 0.197691 -0.762575 0.0125048
63 1 0.774852 0.0017945 0.0231627 0.7825 -3.31579 0.0841912 -0.363601 0.330618
58 1 0.724332 0.0252993 1.00108 0.307485 -3.22151 -0.0967908 -0.0272531 -0.411121
1661 1 0.75219 0.999923 0.0512446 0.79976 -3.32441 0.198016 -0.504125 -0.445995
68 1 0.800704 0.0251606 0.0236364 0.481837 -3.2965 -0.467842 0.224435 0.209075
147 1 0.822001 0.0501859 0.0245 1.25346 -3.26635 0.574931 -0.0208749 0.0683303
67 1 0.823127 0.000932602 0.022374 1.32922 -3.22231 0.943408 -0.250721 1.00767
1665 1 0.800349 0.999929 0.0484283 0.393514 -3.2649 -0.0484983 0.593347 -0.037709
1666 1 0.825141 0.0262942 0.0503967 0.87512 -3.32445 -0.60233 -0.601002 -0.227551
1745 1 0.798344 0.0515441 0.0491806 1.0338 -3.27983 0.217535 -0.635107 0.388438
66 1 0.826483 0.0249863 0.999901 0.843613 -3.31685 -0.287551 0.508982 -0.382848
72 1 0.849553 0.0272948 0.0250217 1.01588 -3.28176 -0.381083 -0.545705 -0.186737
151 1 0.874656 0.0495686 0.0248702 0.393512 -3.27778 0.149516 0.249823 0.215216
71 1 0.874858 0.000978526 0.0261026 0.745842 -3.25272 0.128218 -0.035593 -0.874989
69 1 0.848983 0.9997 0.000329342 0.690176 -3.261 0.15324 -0.177406 -0.0350097
76 1 0.89921 0.0256615 0.0276649 1.53597 -3.30311 0.414724 0.106998 -0.863473
75 1 0.923845 1.00079 0.0239828 0.431172 -3.30148 0.585503 0.341297 -0.0811247
80 1 0.949087 0.0264347 0.0243153 0.474381 -3.33838 0.154039 -0.769822 0.0562602
79 1 0.975472 -0.00112028 0.0232344 0.943305 -3.34819 -0.219089 0.829294 0.410885
157 1 0.950866 0.0511183 1.00004 0.293305 -3.32263 0.128042 -0.313872 -0.233022
78 1 0.974955 0.0251547 0.998673 0.507754 -3.31992 -0.180809 0.08218 0.74733
77 1 0.950108 -0.000675587 0.997941 0.703079 -3.31211 -0.186712 0.448915 0.371617
83 1 0.0259909 0.0527245 0.0243237 0.998165 -3.30438 -0.374802 -0.552524 -0.285548
88 1 0.0499299 0.0767431 0.0246998 0.41308 -3.25739 0.238789 -0.339317 0.00855826
84 1 1.00006 0.0763352 0.0250602 0.374019 -3.27554 -0.117424 -0.355644 -0.431819
1765 1 0.0488407 0.100321 0.0495066 0.280881 -3.35605 0.137318 0.190175 0.351633
165 1 0.0507274 0.100891 0.000143679 0.269179 -3.29245 -0.0200714 0.0809692 0.00775158
85 1 0.0530867 0.0505449 0.000199517 1.12772 -3.28709 -0.272661 0.129021 -0.0459937
82 1 0.02739 0.0757594 -0.000842973 0.583732 -3.29425 -0.288855 0.134708 0.278841
92 1 0.100617 0.0755455 0.025588 0.383206 -3.28423 0.205371 0.144779 -0.113705
1686 1 0.0755174 0.0750973 0.049245 0.38905 -3.29941 -0.299065 -0.00424919 0.379409
86 1 0.0764241 0.0754971 0.00155526 0.754145 -3.29597 -0.369954 0.558979 -0.153318
91 1 0.126329 0.0522171 0.0229306 1.20784 -3.16126 -1.37869 -0.591189 0.106464
96 1 0.150122 0.0734601 0.0241522 1.31232 -3.20749 0.177044 1.14981 -0.154175
1690 1 0.124479 0.0768751 0.0500515 0.664886 -3.27341 0.511507 -0.275229 -0.254864
95 1 0.176946 0.0511518 0.0262842 2.47807 -3.2404 -0.110287 -0.569964 -0.601681
100 1 0.201773 0.0753235 0.0227314 1.15215 -3.29104 -0.268726 0.488341 0.379347
175 1 0.174191 0.098622 0.0246997 1.05358 -3.3454 0.386009 0.247299 -0.343999
1777 1 0.201002 0.101323 0.0488788 0.856277 -3.35721 -0.234758 -0.360845 0.242914
104 1 0.248287 0.0756855 0.0246365 0.745919 -3.24509 -0.275428 0.157685 0.429796
1701 1 0.248403 0.0499871 0.0485757 0.91402 -3.35574 -0.330611 -0.0519757 0.275922
179 1 0.224708 0.103504 0.0246728 1.81344 -3.26602 0.0273382 -0.766662 0.0272436
183 1 0.273891 0.0996479 0.0265664 0.528266 -3.3185 0.591082 -0.0794469 -0.000621751
1698 1 0.225689 0.0764221 0.050059 0.695922 -3.28538 -0.558873 -0.396568 -0.0930556
1702 1 0.274728 0.0732219 0.0528305 1.70649 -3.293 -0.0417484 0.480026 -0.717822
108 1 0.29888 0.0721176 0.0257314 1.84024 -3.27872 0.0076473 0.766863 0.304444
187 1 0.322555 0.100361 0.0252058 1.62936 -3.30089 0.41939 -0.270629 0.337763
106 1 0.323254 0.075539 0.00309062 1.294 -3.30369 0.325395 -0.0872879 -0.642491
111 1 0.374818 0.0501701 0.0235106 0.78247 -3.2899 -0.186654 -0.151663 0.570889
112 1 0.349997 0.0757276 0.0251028 0.607287 -3.34815 -0.0564542 -0.159634 0.187621
191 1 0.37645 0.0998784 0.0248731 0.386463 -3.27767 -0.0801659 0.0192263 0.272033
115 1 0.424746 0.0518593 0.0274238 1.99034 -3.23291 0.449507 -0.618393 -0.498134
116 1 0.399364 0.0739356 0.0243585 0.705916 -3.23161 0.324626 0.35401 0.551216
119 1 0.475745 0.0475078 0.0265829 0.807919 -3.26021 -0.0969747 0.472076 -0.044788
120 1 0.453197 0.0732823 0.025362 1.70474 -3.29998 -0.284536 0.335381 0.496064
197 1 0.451999 0.0974216 1.00056 0.993792 -3.28047 -0.41068 0.340783 -0.0376785
124 1 0.500867 0.0741186 0.0246531 0.615534 -3.32836 -0.271035 0.0898907 0.397271
1718 1 0.47954 0.0745144 0.0516664 2.33735 -3.27396 -1.00701 -0.125076 -0.519485
123 1 0.523819 0.0484952 0.023243 0.9673 -3.31486 0.299426 0.267037 0.585767
128 1 0.547683 0.0771265 0.0249555 0.788108 -3.28735 -0.31884 -0.537325 -0.0360956
1725 1 0.550873 0.0494376 0.0513639 1.03231 -3.3162 -0.508042 -0.110184 -0.443058
1722 1 0.525739 0.0742041 0.0509431 0.714325 -3.35641 -0.2947 0.0690906 -0.124427
1801 1 0.499967 0.100449 0.0517724 0.324387 -3.26887 0.090029 -0.00370266 -0.0566939
122 1 0.523538 0.0749019 -5.19855e-05 0.422291 -3.24634 -0.0351251 -0.190202 0.109324
127 1 0.574073 0.051468 0.0261701 0.848223 -3.33233 -0.129707 -0.205945 -0.657602
132 1 0.598936 0.075548 0.0260494 0.440593 -3.29465 0.217379 -0.15827 -0.431405
126 1 0.571784 0.0762998 0.998968 1.29395 -3.22804 0.849358 -0.292896 1.00286
207 1 0.572547 0.100438 0.023843 0.733712 -3.29119 0.320371 0.235981 0.347007
1729 1 0.598789 0.0512279 0.0498089 0.645605 -3.27477 -0.103195 -0.268017 0.48681
136 1 0.649682 0.0750053 0.0236008 1.04169 -3.35617 -0.103275 -0.194482 0.434249
1730 1 0.624549 0.0748502 0.0503219 0.203729 -3.3296 0.137026 0.177225 -0.137405
1733 1 0.650149 0.0511633 0.0509876 0.622829 -3.28457 -0.0557874 -0.35132 -0.154171
135 1 0.675349 0.0522529 0.0266269 2.22797 -3.28484 -0.366853 -0.59923 -0.316917
140 1 0.701699 0.0755183 0.0251593 0.696565 -3.29806 -0.447796 0.103091 0.162316
134 1 0.675245 0.0727644 0.999581 1.22103 -3.29837 -0.0917305 0.57387 0.364581
137 1 0.699456 0.0493343 1.00196 0.541572 -3.27412 0.0308876 0.10778 -0.516385
143 1 0.774491 0.0512251 0.0241139 0.579384 -3.28974 -0.139697 -0.334391 0.352941
139 1 0.725947 0.0515228 0.0245157 1.07219 -3.29262 0.0107522 -0.0461553 0.637726
1741 1 0.750241 0.0474867 0.0503611 1.0009 -3.30341 -0.0783368 0.864329 -0.121142
144 1 0.751565 0.0758772 0.0269956 1.03376 -3.27749 -0.331825 -0.303285 -0.0834193
142 1 0.774392 0.075409 1.00062 0.300498 -3.24211 -0.214843 0.127254 0.0802885
138 1 0.723217 0.0757661 0.999425 1.18949 -3.31798 0.291924 -0.418917 0.0196262
219 1 0.728082 0.0998078 0.0267681 1.96845 -3.24811 -0.651865 0.114364 0.0542702
223 1 0.773544 0.101864 0.0281752 1.44744 -3.31041 0.0972617 -0.137521 -0.0885994
1821 1 0.750222 0.0995384 0.0529504 0.919608 -3.28104 0.194895 0.20438 0.0971772
148 1 0.799565 0.074979 0.0250136 0.538695 -3.26865 -0.573065 0.335795 0.631344
152 1 0.850111 0.0736365 0.0260227 0.736987 -3.30969 -0.191268 0.229004 0.120031
1750 1 0.875809 0.0758293 0.0492948 0.672721 -3.31593 -0.131386 -0.378945 -0.0627168
231 1 0.874518 0.101387 0.0235407 1.51568 -3.3446 0.273989 -0.305762 0.51986
1749 1 0.847836 0.0494792 0.0504208 0.646027 -3.24154 0.89178 0.101738 -0.00731146
155 1 0.925352 0.0504001 0.0245796 0.4002 -3.3085 -0.428924 -0.0873223 0.0663604
156 1 0.899888 0.0740554 0.0238451 0.452692 -3.33105 -0.198785 0.184252 0.166229
1754 1 0.924654 0.0755149 0.048883 0.289617 -3.30771 -0.281026 -0.126418 -0.000812493
154 1 0.92539 0.0749263 -0.000109201 0.307416 -3.30266 -0.500561 -0.210948 -0.279519
159 1 0.973313 0.049604 0.0266264 1.33464 -3.30545 0.38645 0.0751465 -0.564073
81 1 0.999778 0.0520757 0.000331187 0.754022 -3.37547 0.0649858 -0.51067 0.118852
161 1 1.00105 0.101319 0.999343 0.266673 -3.2972 0.0160634 -0.0908832 0.183347
160 1 0.949235 0.0755124 0.0237931 0.295112 -3.27912 0.348377 -0.00554706 0.234652
158 1 0.975933 0.0758964 0.999878 0.274177 -3.30479 -0.0894711 0.0978334 0.334308
239 1 0.975918 0.100943 0.0239086 0.301102 -3.34673 -0.334214 -0.0908745 0.0789225
1758 1 0.9744 0.0744423 0.0484314 0.346215 -3.36686 -0.180828 0.224984 0.406984
1761 1 1.00048 0.0993281 0.0487722 0.407776 -3.34167 -0.185862 0.474741 0.315521
163 1 0.0250746 0.100295 0.0236676 0.246879 -3.25522 -0.156355 0.117532 0.155363
168 1 0.0474455 0.125256 0.022692 1.93168 -3.30782 0.5656 0.338232 0.326234
1762 1 0.0249808 0.126225 0.0490481 0.192338 -3.35152 -0.0572794 -0.0987275 0.0968039
243 1 0.0252678 0.151239 0.0240951 0.566665 -3.34073 0.0476926 -0.0485676 -0.0115861
245 1 0.0522106 0.153775 0.999061 1.60783 -3.32811 -0.622974 -0.286709 0.285834
167 1 0.0743222 0.0999204 0.0264033 0.610706 -3.31304 0.234789 0.38196 -0.307462
172 1 0.0987786 0.124394 0.0240595 1.46598 -3.29104 0.464901 -0.020301 0.492471
1766 1 0.0748068 0.125732 0.0504667 0.333558 -3.35025 0.0119186 -0.37944 -0.0470167
1769 1 0.0996166 0.0985918 0.0508407 0.891613 -3.30852 -0.0315492 1.06964 -0.0242746
249 1 0.101633 0.153443 0.0010918 1.87579 -3.22522 -0.963715 -0.933052 -0.601454
171 1 0.12752 0.101144 0.025309 1.25697 -3.29788 -0.510161 -0.2583 0.155724
176 1 0.152018 0.124377 0.0260801 0.900171 -3.307 -0.00536942 0.648458 -0.218629
251 1 0.125288 0.150641 0.0257352 0.313473 -3.2938 0.267595 -0.444724 0.272736
1773 1 0.150565 0.101771 0.0494686 0.70932 -3.31331 0.198793 -0.433565 0.596699
170 1 0.124909 0.12694 1.00159 1.03355 -3.3171 0.125302 -0.152835 -0.266786
253 1 0.150304 0.150728 0.00213166 0.865933 -3.27764 -0.013571 -0.149877 -0.301159
180 1 0.198879 0.126656 0.0261713 0.918681 -3.34342 -0.023522 -0.211136 -0.232176
1774 1 0.175836 0.125619 0.0517379 0.697519 -3.25106 -0.0579854 -0.111782 -0.338537
257 1 0.197166 0.150971 1.00088 1.20293 -3.285 0.782087 -0.219177 -0.494902
255 1 0.174736 0.151055 0.0257038 0.395157 -3.26121 -0.0441453 -0.0380845 0.404989
174 1 0.175207 0.125305 -0.000856173 0.642228 -3.38188 -0.105318 -0.152623 0.189822
184 1 0.251128 0.124629 0.0253021 0.526924 -3.2987 0.226179 0.454989 -0.359699
259 1 0.225876 0.150057 0.0244726 0.228209 -3.31583 -0.121766 -0.287948 0.107278
1778 1 0.227326 0.125734 0.0505646 0.547764 -3.28827 -0.340794 -0.144768 -0.182978
261 1 0.24934 0.15009 -0.000981955 0.280751 -3.35667 0.224613 -0.124371 -0.00718969
182 1 0.277846 0.126447 0.998619 2.26076 -3.30927 -0.840697 0.273759 0.650869
178 1 0.224247 0.125821 1.00103 0.599763 -3.30702 -0.148194 0.320334 -0.182678
188 1 0.298419 0.125528 0.0269335 1.38738 -3.27991 0.163849 -0.438478 -0.524504
1865 1 0.301211 0.151671 0.0495192 1.09961 -3.31535 -0.251183 -0.38833 0.450715
186 1 0.325987 0.122983 1.00173 1.4239 -3.32606 -0.439137 0.359589 -0.313167
192 1 0.351043 0.123643 0.0273224 0.830783 -3.25619 -0.19012 0.0621876 -0.4215
271 1 0.373811 0.14882 0.02638 0.639578 -3.32058 0.0761404 0.520663 -0.3719
195 1 0.426701 0.0985328 0.0252078 0.581937 -3.34494 -0.0445708 0.032508 0.046168
196 1 0.400079 0.126428 0.0241026 1.01706 -3.33075 0.153013 -0.57737 0.280342
194 1 0.428526 0.124007 1.00147 1.4243 -3.30115 -0.585724 -0.277899 -0.573012
199 1 0.474413 0.100564 0.027016 0.693671 -3.32431 0.13098 -0.296926 0.0315537
200 1 0.449907 0.124983 0.0259942 0.341573 -3.26397 0.0957111 -0.0233567 0.430894
279 1 0.472943 0.149623 0.0245135 1.02289 -3.27102 0.506925 0.388267 0.0773068
204 1 0.498182 0.12649 0.0266561 0.5299 -3.24598 -0.211864 -0.0708048 -0.54178
1798 1 0.475318 0.12503 0.0514043 0.48171 -3.30983 -0.691738 0.199774 0.267071
1805 1 0.548285 0.101247 0.0505852 0.347535 -3.33627 -0.0139247 -0.120552 -0.128223
203 1 0.522068 0.102816 0.025635 1.4164 -3.24857 0.239355 -0.71151 0.227413
1802 1 0.522965 0.12593 0.0503672 0.223525 -3.28625 0.379298 0.0499786 0.295103
208 1 0.547588 0.125047 0.0255584 0.457186 -3.30572 0.685013 0.468312 -0.00145619
201 1 0.498898 0.100028 0.00185881 0.532002 -3.3175 -0.186937 0.139238 -0.310276
212 1 0.601023 0.123167 0.0255978 1.27555 -3.32124 -0.167798 0.69361 -0.160174
287 1 0.576159 0.151755 0.0267512 1.40396 -3.34305 -0.325114 -0.399872 -0.617339
1809 1 0.600298 0.100651 0.049589 0.249955 -3.35808 -0.270438 0.0521307 0.157656
211 1 0.625207 0.0989905 0.0247875 0.487753 -3.24496 0.446197 0.101771 0.582772
1813 1 0.652504 0.0968902 0.0507736 2.48753 -3.29859 -0.359175 0.550816 -0.344877
1810 1 0.627119 0.125607 0.0492037 1.03153 -3.33451 -0.261634 -0.39171 0.152795
216 1 0.649635 0.125495 0.0246385 0.62813 -3.34038 0.0492195 -0.120537 -0.00958059
210 1 0.624794 0.125123 0.998635 0.892865 -3.30227 -0.249045 -0.227103 0.641466
215 1 0.675422 0.0993489 0.0248427 0.474009 -3.2913 -0.40031 -0.161281 -0.10512
220 1 0.701494 0.123177 0.026136 1.45741 -3.31161 -0.01916 0.493746 0.114082
224 1 0.748552 0.125913 0.0250844 1.06385 -3.32568 0.197852 0.276808 0.167534
222 1 0.776164 0.125895 1.00093 0.536779 -3.28399 -0.659073 -0.264968 0.0744504
1818 1 0.72591 0.125496 0.0518014 0.674243 -3.34126 -0.102256 -0.0854921 -0.297172
1822 1 0.774177 0.126933 0.0522493 0.766716 -3.35763 0.376018 -0.486643 -0.298434
1901 1 0.750676 0.150739 0.0521318 0.42141 -3.31672 -0.0686072 0.0733911 -0.578962
227 1 0.824903 0.0987284 0.0264121 0.305264 -3.27086 -0.214738 0.227994 0.0798908
1825 1 0.800493 0.0988369 0.0510486 0.539642 -3.27835 -0.517582 0.20017 -0.42007
228 1 0.799734 0.125088 0.0255013 0.48636 -3.25579 -0.178293 -0.227559 0.599806
1829 1 0.849732 0.0979104 0.0495791 1.05461 -3.27065 0.00955366 0.38746 0.0169162
232 1 0.849838 0.125013 0.0250308 0.433697 -3.34401 -0.0335339 0.165513 0.0369108
311 1 0.876833 0.148989 0.0252994 0.792652 -3.26849 -0.727017 -0.0904837 -0.268212
1830 1 0.873179 0.12442 0.0512782 1.47227 -3.32984 0.258877 0.00200929 -0.365171
309 1 0.848678 0.149668 1.00018 0.772709 -3.35081 0.277298 -0.514927 0.0646881
235 1 0.924133 0.0998168 0.0234595 0.383182 -3.24372 -0.343147 -0.0431032 0.187729
236 1 0.902279 0.124947 0.0266239 1.57973 -3.26255 -0.621161 -0.0325275 -0.523811
315 1 0.925987 0.15137 0.0266451 0.893537 -3.30974 -0.230473 0.061331 -0.628756
237 1 0.948237 0.100393 4.48318e-05 0.620339 -3.27309 0.839924 0.168266 0.00561775
164 1 0.00079102 0.12553 0.0239639 0.4233 -3.2922 0.421102 0.0723288 0.329401
240 1 0.948568 0.124717 0.0234926 0.813457 -3.31223 0.0973696 0.0253339 0.0761429
1838 1 0.9755 0.126265 0.0488497 0.447794 -3.3419 -0.166728 -0.644135 0.176728
248 1 0.0516705 0.175018 0.026099 0.934287 -3.28835 0.231313 0.12181 -0.61949
244 1 0.998878 0.175097 0.0244567 0.509792 -3.35629 0.0507231 0.0397189 -0.0243454
323 1 0.0245329 0.200957 0.025017 0.477173 -3.34205 0.225334 0.0677354 -0.283073
1841 1 1.00025 0.151151 0.0505186 0.448988 -3.3059 0.274612 0.156454 -0.444823
247 1 0.0769479 0.149061 0.024798 1.30854 -3.29624 -0.611507 0.359002 0.0875475
252 1 0.101 0.174164 0.0254309 0.633518 -3.24698 -0.578149 0.356007 0.335287
246 1 0.0752886 0.178602 -0.000184367 1.55679 -3.26016 0.419096 -0.554063 0.226364
327 1 0.074986 0.200944 0.0271439 0.812491 -3.32005 0.206624 -0.396287 -0.272027
329 1 0.102128 0.199055 0.00358473 2.82227 -3.2671 -0.129243 0.459875 -0.897833
256 1 0.149593 0.175981 0.024325 0.823704 -3.29707 0.203429 -0.276848 0.719531
250 1 0.125091 0.174984 -0.000364486 0.671507 -3.19003 0.599884 0.543201 -0.156115
260 1 0.201585 0.174541 0.0241009 0.540117 -3.29842 -0.129263 0.121029 0.577428
337 1 0.199635 0.200133 0.999959 0.416403 -3.31386 -0.0554166 -0.0115793 -0.242687
1937 1 0.200844 0.199113 0.0472829 1.19591 -3.29123 0.0114848 -0.321295 0.533406
254 1 0.175403 0.175891 1.00179 1.14138 -3.25152 -0.220308 0.114514 -0.598679
263 1 0.275104 0.150414 0.0249757 0.336283 -3.28598 -0.000600008 -0.275798 -0.338348
1861 1 0.251556 0.149084 0.0496241 0.228611 -3.23357 -0.311098 0.261391 -0.109234
264 1 0.249396 0.174171 0.0230842 0.577842 -3.2655 0.29374 0.224563 0.389283
258 1 0.225119 0.175451 0.999516 0.494675 -3.30594 -0.409034 -0.280692 -0.700096
339 1 0.225735 0.199306 0.0222367 0.816703 -3.23495 -0.304271 0.157944 0.585468
1862 1 0.274631 0.174672 0.0487839 0.454464 -3.36641 0.0605144 0.305033 0.233914
267 1 0.324335 0.147508 0.0260836 1.26241 -3.25899 0.670345 0.496514 -0.224056
268 1 0.300269 0.174042 0.0249987 0.385777 -3.27481 0.38257 0.308893 -0.0437575
347 1 0.3248 0.199052 0.0272508 1.00424 -3.32446 -0.0743052 0.313623 -0.610199
266 1 0.325686 0.174708 0.999453 0.39961 -3.27676 0.119771 0.0805956 0.132097
1866 1 0.324253 0.176878 0.0510131 1.11119 -3.29261 0.267805 -0.264993 -0.1567
272 1 0.349232 0.17538 0.0248719 0.632496 -3.34126 0.0363497 -0.431984 0.249624
1870 1 0.37522 0.174756 0.0502722 0.167266 -3.31066 0.0302876 0.00505798 -0.182751
275 1 0.425448 0.150411 0.0248291 0.236047 -3.25779 0.434997 -0.130083 -0.10351
276 1 0.400187 0.173819 0.0253371 0.314914 -3.2903 -0.483446 0.277055 -0.58581
355 1 0.425064 0.199646 0.0238266 0.58977 -3.30373 -0.211043 0.358606 0.423722
280 1 0.450601 0.176688 0.024503 0.467512 -3.30213 -0.123143 -0.344682 -0.0943721
278 1 0.475651 0.175629 0.000575403 0.374538 -3.33395 -0.530833 0.172906 -0.112122
359 1 0.475232 0.199955 0.0253744 0.541167 -3.2905 0.224468 0.395246 -0.307063
1881 1 0.499003 0.150756 0.0497756 0.409945 -3.29847 -0.154611 0.339287 0.0191642
1878 1 0.475157 0.176758 0.0497185 0.19265 -3.31135 0.377294 -0.147008 -0.0299803
357 1 0.448594 0.203158 1.00074 1.84033 -3.25406 0.979353 -0.685639 -0.0628345
283 1 0.523397 0.150146 0.0249428 0.279845 -3.27629 0.392938 0.233202 0.292626
284 1 0.501481 0.176323 0.0236927 0.782355 -3.30581 -0.225226 -0.173262 0.638958
288 1 0.549612 0.174708 0.0256091 0.509119 -3.37952 0.258389 0.246281 -0.0662544
363 1 0.52674 0.201504 0.0251117 0.424477 -3.35379 0.148155 0.13133 -0.276254
1882 1 0.524739 0.175425 0.0506022 0.171785 -3.28919 -0.426864 -0.0903433 -0.169724
282 1 0.526068 0.175581 3.91252e-05 0.336525 -3.27137 -0.234051 0.397437 0.0792077
1889 1 0.600221 0.149971 0.0501526 0.268756 -3.31004 0.330676 -0.121123 0.00639682
1886 1 0.575207 0.174869 0.0519854 0.79584 -3.27568 -0.20574 0.0386584 -0.489282
292 1 0.599619 0.17695 0.0256656 1.14566 -3.32025 -0.0940514 -0.395581 -0.27233
369 1 0.601563 0.198361 -0.000885381 1.12857 -3.32525 -0.276758 0.186499 0.294547
291 1 0.624497 0.150599 0.0242393 0.477906 -3.34858 -0.349526 -0.330214 0.189315
1893 1 0.649827 0.151146 0.0502145 0.625027 -3.25374 -0.0551147 -0.412098 -0.369681
371 1 0.626036 0.199535 0.0252574 0.435722 -3.34063 -0.0897817 0.2492 -0.237553
296 1 0.650153 0.17413 0.0242001 0.425453 -3.33686 0.293618 0.384348 0.282455
290 1 0.625188 0.172345 0.000477531 1.18566 -3.2806 -0.126922 0.539605 -0.0610438
297 1 0.698635 0.150922 1.00089 0.778532 -3.26317 0.392954 -0.295307 -0.399259
295 1 0.675869 0.150819 0.0262182 0.846015 -3.3139 -0.10218 -0.411073 -0.0816555
300 1 0.70017 0.17527 0.025071 0.337683 -3.32491 -0.0207166 0.455787 0.0436235
1897 1 0.700323 0.149416 0.0497884 0.553471 -3.29562 0.0763276 -0.0872897 0.362417
299 1 0.723134 0.15116 0.0246256 0.96382 -3.30572 0.597851 -0.284146 0.164422
303 1 0.776566 0.150676 0.0251532 0.792419 -3.32293 -0.310904 0.048015 0.778913
304 1 0.748986 0.175037 0.0245008 0.719359 -3.32072 -0.20665 0.0848662 0.632536
1902 1 0.775532 0.175556 0.0508609 0.126657 -3.31259 0.137822 -0.0720458 -0.285497
379 1 0.723081 0.201926 0.0260306 1.2348 -3.36251 0.271639 -0.463781 -0.109875
383 1 0.775062 0.199774 0.0247253 0.278883 -3.31184 -0.0965317 0.0501485 0.296555
1898 1 0.725495 0.174834 0.0510807 0.247071 -3.33832 -0.0350534 0.0550776 -0.162464
307 1 0.82357 0.149053 0.0251282 1.09253 -3.29248 0.617347 0.404817 0.840275
308 1 0.801048 0.176318 0.0255218 0.410622 -3.36234 0.0559301 -0.168412 0.362387
1905 1 0.799935 0.15081 0.0532664 0.937624 -3.3292 0.182309 -0.0330461 -0.63375
387 1 0.825126 0.201843 0.0242744 0.759522 -3.25318 -0.252533 -0.595827 0.390935
312 1 0.85151 0.173324 0.0247463 0.841325 -3.31918 -0.249189 0.1454 0.462041
1989 1 0.851387 0.201055 0.0491862 0.714408 -3.26429 -0.0404868 0.15863 -0.133473
1910 1 0.875158 0.173059 0.0508822 1.21009 -3.27221 0.0818356 0.980931 -0.32554
310 1 0.874329 0.172552 -0.000569685 0.713979 -3.24568 -0.281895 0.636846 0.128363
316 1 0.899324 0.175537 0.0248739 0.419253 -3.33866 0.0243735 -0.0428162 0.204957
314 1 0.925793 0.175886 7.03954e-05 0.391397 -3.32815 0.0642903 -0.0757042 -0.12637
319 1 0.973137 0.149303 0.0269333 1.69904 -3.2396 0.607695 0.356695 -0.634409
320 1 0.950279 0.175654 0.0242949 0.4116 -3.30374 0.0611978 0.0196453 0.300311
399 1 0.975223 0.20109 0.0253622 0.383753 -3.29934 -0.0171495 0.0753152 0.0678912
325 1 0.0501549 0.200732 -7.66375e-05 0.650078 -3.27072 0.0483796 0.431617 0.373843
328 1 0.0524265 0.225525 0.0244405 0.974874 -3.30422 -0.75745 -0.186458 0.243023
403 1 0.0249785 0.250563 0.0239832 0.574724 -3.27694 0.203707 -0.159455 0.342268
2005 1 0.0496323 0.247879 0.0492929 1.1495 -3.31321 0.238794 0.462651 -0.117184
321 1 0.997579 0.203076 0.000730082 1.59614 -3.27081 0.751319 -0.673854 -0.165082
332 1 0.100867 0.224421 0.0243993 0.552495 -3.32979 0.0487279 0.16105 0.335238
407 1 0.0751399 0.249632 0.0222244 1.54681 -3.21353 0.609196 -0.0699372 0.954174
326 1 0.0771475 0.224061 1.00022 0.672763 -3.32614 -0.257919 0.138936 -0.439523
331 1 0.124711 0.19804 0.027175 1.41832 -3.23117 0.2642 0.63446 0.152632
336 1 0.149401 0.223872 0.0247993 0.748494 -3.30223 -0.00677568 0.250645 0.151165
411 1 0.124483 0.25067 0.0264619 0.662574 -3.27828 0.284655 -0.023598 -0.254899
330 1 0.126621 0.226039 1.00012 0.914664 -3.24422 -0.686355 -0.672691 0.21945
413 1 0.146889 0.251349 0.00154165 1.7269 -3.25782 0.937172 0.175643 -0.254453
335 1 0.17509 0.199794 0.0262003 0.620719 -3.27725 -0.128955 -0.14632 -0.268479
340 1 0.198664 0.225571 0.0234728 0.65893 -3.33683 0.523588 -0.177658 0.397228
415 1 0.172932 0.24942 0.0243091 0.892985 -3.31787 0.246823 0.174312 0.123701
334 1 0.174442 0.224412 1.00088 0.367458 -3.28487 -0.481765 0.0910769 -0.32746
417 1 0.199498 0.25036 1.00063 0.566146 -3.25955 -0.0136192 -0.19791 0.00233343
343 1 0.275525 0.198058 0.0234526 0.749189 -3.35411 -0.0624235 0.427818 0.141814
344 1 0.248945 0.222622 0.0234987 1.11519 -3.29778 -0.0204148 0.559705 0.165306
419 1 0.223657 0.250364 0.0253174 0.526949 -3.31745 0.365763 -0.538861 -0.0323844
1938 1 0.222034 0.223803 0.0499353 1.59679 -3.30481 0.813448 0.323483 -0.199409
2021 1 0.250154 0.249032 0.0481254 0.487991 -3.30804 -0.394757 -0.144502 0.328382
1942 1 0.274835 0.225215 0.0474068 1.31475 -3.25458 -0.137761 -0.20836 0.664011
338 1 0.225231 0.22569 0.997724 0.926122 -3.28555 -0.0619595 -0.159185 0.742493
1941 1 0.249649 0.201053 0.0491175 1.42863 -3.30885 0.323589 -0.358797 -0.356368
348 1 0.299963 0.225596 0.0259885 0.762284 -3.24505 0.42801 -0.410662 -0.430192
427 1 0.326132 0.249205 0.0251597 0.441203 -3.34818 0.220082 0.161508 -0.193952
1945 1 0.299934 0.201758 0.0506699 1.12737 -3.32793 -0.268839 -0.262212 0.0848563
2025 1 0.300828 0.249703 0.0504255 0.622391 -3.31317 -0.103235 0.164906 -0.297027
351 1 0.375132 0.198737 0.027208 1.12254 -3.25936 0.226615 -0.0909309 -0.845655
352 1 0.35136 0.22236 0.0255375 1.49483 -3.32509 -0.299653 0.466098 -0.191009
350 1 0.374142 0.224876 -0.000863868 0.47318 -3.3159 0.273827 0.0347073 0.561429
356 1 0.398382 0.22462 0.0252873 0.744672 -3.36451 0.264413 0.0438676 -0.135105
435 1 0.425689 0.250541 0.0262959 0.233409 -3.3512 -0.00519434 0.135998 -0.208872
433 1 0.401716 0.250695 0.000815048 0.919783 -3.30826 -0.699008 0.0660746 0.3627
1954 1 0.425416 0.22685 0.0510277 0.518502 -3.32895 0.00915351 -0.27032 -0.395506
1957 1 0.451544 0.202329 0.049513 0.536366 -3.33121 -0.6331 -0.256034 0.168888
360 1 0.452409 0.226864 0.027197 1.19643 -3.2843 -0.587409 -0.327332 -0.473935
1958 1 0.476686 0.225858 0.0506775 0.384971 -3.24563 0.0208323 0.0900058 -0.0867962
358 1 0.475508 0.226401 0.00113835 0.373787 -3.35638 0.0846334 -0.337275 -0.249967
364 1 0.499835 0.226866 0.0257308 0.744015 -3.32469 0.341395 -0.565525 -0.142644
361 1 0.501238 0.200833 1.00163 0.469752 -3.34848 -0.192123 0.281559 -0.285766
1965 1 0.549716 0.199701 0.0500111 0.439547 -3.28989 0.347778 -0.031755 -0.118553
1962 1 0.526421 0.224567 0.0504913 0.597406 -3.31341 -0.332808 0.170193 -0.276534
368 1 0.552414 0.228281 0.0228521 1.97734 -3.30922 -0.251297 -0.449217 0.428942
367 1 0.575553 0.202043 0.0242307 0.624809 -3.33946 -0.170305 -0.406254 0.0950656
372 1 0.599051 0.226834 0.0238829 1.24454 -3.25919 0.54328 -0.373809 0.30943
447 1 0.57656 0.251425 0.0261224 0.672907 -3.25876 -0.13233 0.130939 -0.132942
366 1 0.576727 0.226016 -0.00217033 0.733828 -3.26203 -0.239729 -0.166753 0.156317
1969 1 0.600941 0.199025 0.0505505 0.380007 -3.30207 0.192181 0.361863 -0.24415
1966 1 0.576614 0.224544 0.0492261 0.44186 -3.34619 -0.151423 0.269868 0.194829
1970 1 0.626211 0.225264 0.0499188 0.244289 -3.34236 -0.146724 -0.141787 -0.308254
376 1 0.649706 0.225554 0.0224323 0.91945 -3.27865 0.0668255 -0.0200905 0.60376
451 1 0.62536 0.250941 0.0243424 0.377185 -3.31414 0.165085 -0.0461369 -0.177603
2053 1 0.648838 0.250923 0.048926 0.518351 -3.33543 0.363862 -0.016446 0.180592
370 1 0.623803 0.223849 1.00022 0.92006 -3.2971 0.138071 0.167458 -0.118189
375 1 0.675201 0.200957 0.0233616 0.871971 -3.33959 -0.0796237 -0.278124 0.448034
380 1 0.699679 0.226941 0.0257041 1.32072 -3.22669 -0.336777 -0.347512 -0.0185273
455 1 0.671593 0.25437 0.0224519 4.61537 -3.19963 0.429603 -1.11433 0.731729
1974 1 0.673643 0.224918 0.0496916 0.468776 -3.32224 0.0244396 0.0629634 0.00855899