ITEM: TIMESTEP
10500
ITEM: NUMBER OF ATOMS
32000
ITEM: BOX BOUNDS pp pp pp
4.1270707189473201e+00 7.6872929281052720e+01
-2.1826134804563182e+00 8.3182613480456496e+01
-2.1987623537725511e+00 8.3198762353771983e+01
ITEM: ATOMS id type xs ys zs c_csym c_peratom fx fy fz
8 1 0.0528946 0.0272898 0.0270355 5.90296 -3.21419 -0.244365 -0.0316815 -0.416858
4 1 1.00304 0.0240994 0.0266975 1.54661 -3.29026 -0.57178 0.434819 0.0708696
83 1 0.0249026 0.0499187 0.0252645 0.927225 -3.28013 -0.436629 0.334999 0.372158
12 1 0.0984008 0.0249143 0.0247551 1.52998 -3.25977 0.163529 0.0651423 0.184565
1609 1 0.100971 0.000776784 0.0509084 0.562274 -3.33358 -0.307017 -0.243263 -0.514489
6 1 0.0735883 0.0264734 1.00106 0.812454 -3.2609 -0.271313 0.0673977 -0.210635
16 1 0.150081 0.0253876 0.0246044 0.240805 -3.19815 0.195271 -0.621005 0.359787
91 1 0.124551 0.0483803 0.0266725 1.7319 -3.32373 -0.0854454 0.487476 -0.374525
14 1 0.175078 0.0262719 0.999093 0.327564 -3.25094 -0.45514 -0.0388957 -0.0700876
1610 1 0.124943 0.0250119 0.0507542 0.448528 -3.29358 0.331601 0.00412617 -0.373709
1693 1 0.152001 0.0498217 0.0496495 1.02279 -3.2684 -0.681011 0.239486 0.313488
1614 1 0.176527 0.0265999 0.0502106 1.14247 -3.32468 0.00385253 -1.02326 -0.0562964
20 1 0.200215 0.0254338 0.0217615 1.72194 -3.26595 0.305558 0.0384745 0.575614
1618 1 0.224536 0.0266016 0.048669 1.12587 -3.34077 -0.11572 -0.189674 0.0280675
24 1 0.250451 0.0270462 0.0251938 0.698372 -3.35976 0.309322 -0.333508 -0.111149
1622 1 0.278433 0.0243244 0.0491798 6.69224 -3.31131 -0.526093 -0.138437 -0.0141132
1701 1 0.252924 0.0510063 0.0518649 1.50114 -3.29512 -0.079502 -0.0326659 -0.715884
23 1 0.275576 -0.000408829 0.0234716 0.666528 -3.28195 -0.334194 0.472484 0.663526
1621 1 0.248982 -0.000723355 0.0491534 1.04795 -3.29178 0.311299 0.530516 -0.210478
101 1 0.250825 0.0517609 1.0017 1.36464 -3.26509 0.00410072 -0.0543832 -0.18745
28 1 0.30025 0.0258354 0.0239275 0.764794 -3.28434 -0.125289 -0.0107313 -0.027795
32 1 0.350729 0.0278959 0.0256798 2.24198 -3.11277 -1.13331 -0.440923 0.187764
109 1 0.351005 0.051797 1.00037 0.61806 -3.26607 -0.121593 0.206275 -0.301004
30 1 0.371368 0.0241393 0.00138 5.87785 -3.24649 1.00061 0.24411 -0.293426
36 1 0.400259 0.0239988 0.0260255 1.00553 -3.3635 -0.26441 0.103784 -0.0410074
111 1 0.374285 0.0498649 0.0249169 0.459375 -3.24625 0.876296 0.471147 0.162127
113 1 0.399673 0.0523233 -0.00176507 1.16414 -3.29661 -0.0661446 -0.511012 0.173039
40 1 0.451393 0.0254707 0.023881 0.632671 -3.31207 -0.152409 0.133719 0.0785767
115 1 0.423465 0.0500303 0.0236827 1.07782 -3.27777 0.312703 -0.314268 0.181106
44 1 0.49803 0.0256474 0.0268727 0.935249 -3.24923 0.311261 -0.43734 -0.714597
119 1 0.476636 0.0517207 0.0250226 1.10145 -3.29177 0.0544104 -0.0616565 -0.0724513
39 1 0.474938 0.999919 0.0230142 1.09436 -3.34815 -0.049626 -0.0621129 0.290951
43 1 0.521643 -0.00100839 0.0251571 6.33321 -3.24929 0.896973 0.709811 0.0909555
48 1 0.549116 0.0248784 0.024277 0.797439 -3.33641 0.128177 -0.00470279 0.650941
47 1 0.577923 1.00189 0.0261519 6.45214 -3.24988 -0.926604 -0.112473 -0.159156
1645 1 0.548366 1.00166 0.0504864 0.683323 -3.35614 -0.203316 0.0426038 -0.395277
52 1 0.599576 0.0274703 0.0237985 1.66437 -3.22663 0.0810137 -0.472884 0.370356
51 1 0.623078 -0.00047296 0.024908 0.915703 -3.28574 0.596158 0.302626 0.0186905
1650 1 0.625316 0.0247107 0.0506655 1.16407 -3.32692 -0.162712 0.0638686 -0.649764
1649 1 0.60143 0.999689 0.0502835 0.904084 -3.29289 -0.131675 0.0416989 0.650216
56 1 0.649373 0.0232702 0.0232907 1.05372 -3.22407 0.0599275 -0.0912914 0.279845
60 1 0.700361 0.0258028 0.0239577 0.647094 -3.27822 0.00138488 0.26257 0.272627
1654 1 0.672678 0.0274668 0.0467654 3.12386 -3.21377 0.856459 -0.7792 0.147435
64 1 0.747962 0.0258891 0.0237249 1.49667 -3.28056 0.402541 -0.301488 0.603773
58 1 0.724627 0.0243298 0.999611 0.669383 -3.20953 0.0707179 0.361008 -0.170068
63 1 0.775269 1.00052 0.0243171 0.574476 -3.33886 -0.0445518 -0.0777129 0.546783
68 1 0.802726 0.0248142 0.0275712 1.58613 -3.28452 -0.156275 -0.116795 -0.387971
62 1 0.777532 0.0247434 1.00228 1.74709 -3.31167 0.107446 -0.209176 -0.316623
143 1 0.776181 0.0483028 0.0251639 0.879471 -3.34222 -0.204783 0.444247 0.381601
72 1 0.849938 0.024828 0.0237477 0.916504 -3.28631 -0.149342 -0.313974 0.328941
70 1 0.874755 0.0230813 1.00043 1.11948 -3.23901 0.219085 0.559742 -0.154756
66 1 0.823185 0.0240882 0.999437 1.20075 -3.32938 0.213442 0.143633 0.109071
147 1 0.826863 0.0493996 0.0248728 0.696842 -3.26242 -0.104796 0.257073 -0.339389
71 1 0.875217 -0.00119437 0.0261565 0.417111 -3.32353 0.366673 0.291861 -0.116838
69 1 0.849886 1.00054 1.0009 0.502268 -3.2374 0.0936456 -0.279196 -0.174468
76 1 0.899465 0.0257561 0.0263296 0.547896 -3.26151 -0.00763192 -0.613199 0.21992
75 1 0.926785 1.00017 0.0250055 0.750116 -3.27302 -0.58034 0.405138 0.145956
1673 1 0.900512 0.999829 0.0513365 0.171347 -3.38239 0.120267 -0.0597919 -0.212999
73 1 0.899646 0.000762351 0.998491 1.11884 -3.2783 0.263315 -0.465917 0.395836
80 1 0.950797 0.025612 0.0249223 0.777602 -3.27426 -0.79703 -0.0795491 0.324953
79 1 0.974389 -0.000345627 0.0254803 1.26362 -3.26511 0.311879 0.403037 0.38078
159 1 0.974616 0.0500279 0.0269686 0.866354 -3.27806 0.673286 0.245115 0.185646
1678 1 0.974237 0.0271494 0.0496959 1.08934 -3.31395 0.472987 -0.617828 0.32969
78 1 0.975579 0.024986 0.00274054 0.758967 -3.27436 0.115667 0.18274 -0.427576
88 1 0.0479719 0.0751398 0.0269272 0.982656 -3.28942 0.326249 0.0641852 -0.202052
1682 1 0.025192 0.074548 0.0523749 0.942915 -3.20662 0.209285 0.593196 -0.0791293
81 1 -0.00148418 0.0501658 0.00116415 1.07708 -3.35468 -0.198233 0.425455 0.118888
165 1 0.0502924 0.101728 1.0004 0.600736 -3.29821 -0.0712886 -0.474501 -0.0878724
85 1 0.0488373 0.0512493 0.00204843 0.736496 -3.25315 0.721842 0.223882 -0.0838656
87 1 0.0766771 0.0525564 0.0279409 1.44684 -3.3027 0.29545 -0.0970592 -0.595905
92 1 0.102159 0.0765343 0.0254013 0.66856 -3.30165 -0.108283 -0.312385 0.162261
1689 1 0.103119 0.0515565 0.0521414 1.36626 -3.26338 -0.426777 0.159682 -0.166818
96 1 0.15119 0.0727692 0.0242089 1.31714 -3.30728 -0.225348 0.546979 0.154492
1690 1 0.126449 0.0767023 0.0499765 0.452769 -3.23145 -0.136968 -0.621641 -0.15872
95 1 0.173477 0.047568 0.0244267 1.94877 -3.16679 0.902017 0.61226 -0.10842
99 1 0.224562 0.0507136 0.0255534 0.611112 -3.31338 0.0473568 0.122131 0.208104
100 1 0.197102 0.0735056 0.0253649 1.72059 -3.26452 0.684908 0.177275 -0.666918
179 1 0.223545 0.0994902 0.022214 1.22853 -3.33553 0.0797873 -0.00283415 0.491694
103 1 0.277249 0.0519797 0.0257161 0.871584 -3.29285 -0.336581 -0.146419 -0.0414742
104 1 0.249755 0.0756109 0.02638 0.660121 -3.34406 -0.12766 -0.123196 -0.289373
102 1 0.27484 0.0753084 -0.000550558 0.696933 -3.27289 -0.133705 0.305655 0.110341
107 1 0.323881 0.0525422 0.0234003 0.84241 -3.2571 -0.0194859 -0.183758 0.192578
108 1 0.300802 0.0783279 0.0233137 1.51263 -3.26335 -0.182184 -0.0483604 0.182348
112 1 0.349948 0.0753198 0.0257312 0.53533 -3.27998 0.364279 -0.0623382 -0.276325
105 1 0.299854 0.052303 1.00027 0.562925 -3.25596 -0.0482185 -0.266556 -0.508933
106 1 0.324337 0.0779449 -0.000606176 0.818015 -3.34426 0.40706 -0.333051 -0.318216
116 1 0.400744 0.0740184 0.0248088 0.552093 -3.24454 -0.375283 0.308895 -0.067359
191 1 0.376503 0.10041 0.0243709 0.280258 -3.33652 0.277937 -0.199712 -0.0845316
110 1 0.375857 0.0758967 1.00035 0.436871 -3.31753 -0.113968 0.313976 -0.201013
120 1 0.448951 0.0736474 0.0258514 0.878832 -3.32678 -0.0275765 0.365104 -0.16802
195 1 0.423628 0.0998079 0.022523 1.01151 -3.33006 0.00938026 0.176292 0.324574
1714 1 0.423568 0.0736683 0.0496564 0.526785 -3.24647 -0.110686 0.256538 -0.223424
114 1 0.424895 0.0768941 0.998376 0.965373 -3.3006 0.22842 -0.592371 0.0959619
123 1 0.520547 0.0492768 0.0269548 6.31273 -3.25999 0.439035 0.127277 0.25551
124 1 0.499327 0.0780147 0.0263719 1.51697 -3.27971 0.377709 -0.631495 -0.294418
122 1 0.525132 0.0768123 1.00117 1.02218 -3.26765 -0.0796281 -0.292651 -0.253278
203 1 0.526475 0.100269 0.0261817 0.908633 -3.25698 -0.341458 -0.362014 0.169468
1722 1 0.521324 0.0755375 0.0529185 1.10071 -3.27386 0.35149 -0.497451 -0.323766
1721 1 0.496666 0.0505518 0.052283 0.482739 -3.21456 0.611173 -0.256533 -0.0103921
121 1 0.502204 0.0511422 -0.000175317 0.875939 -3.31638 -0.490847 -0.102285 -0.0750222
201 1 0.500898 0.100817 0.000925418 0.371276 -3.23428 -0.252705 -0.559687 0.0118935
1725 1 0.548428 0.0518024 0.0523393 1.00569 -3.31565 -0.0313043 -0.695053 -0.402428
127 1 0.575003 0.0513967 0.0255256 0.760244 -3.24221 -0.758889 -0.433169 -0.0684361
128 1 0.546294 0.071571 0.0265028 3.3498 -3.28617 0.385927 0.728763 0.182697
1726 1 0.573877 0.0751216 0.0514279 0.70524 -3.30337 0.510513 -0.184792 -0.146237
207 1 0.575181 0.0986934 0.0260817 0.576189 -3.33505 -0.286426 -0.0849687 0.0586612
126 1 0.574937 0.0740663 0.00112971 0.740061 -3.34622 -0.191038 -0.0539977 0.0166879
131 1 0.627385 0.0475954 0.0231638 1.8636 -3.21275 -0.297286 0.643882 0.48034
132 1 0.60158 0.0725331 0.025369 1.52619 -3.26274 -0.0962219 0.524877 -0.263236
1730 1 0.62627 0.072729 0.0487574 0.984427 -3.26763 -0.20671 0.712904 0.348801
211 1 0.623798 0.0984214 0.023279 0.6853 -3.35164 0.0778321 0.176966 0.340027
1809 1 0.599903 0.0987726 0.0498568 0.195633 -3.32286 0.0989461 -0.0245864 0.00386897
1729 1 0.599255 0.0505549 0.0484579 0.99595 -3.23369 -0.00171672 -0.279953 0.279143
135 1 0.675749 0.0519318 0.0224834 1.45249 -3.30525 0.069129 -0.864835 0.0674296
136 1 0.651182 0.0741492 0.0238243 0.427697 -3.30517 -0.56993 0.551239 0.127752
140 1 0.700456 0.075801 0.0240713 0.358715 -3.28798 -0.0287927 -0.00616274 -0.155264
134 1 0.674745 0.0744634 0.999668 0.41751 -3.30123 0.408403 0.23084 -0.177198
215 1 0.674999 0.101646 0.0250241 0.72955 -3.28398 -0.268342 -0.480126 -0.525805
1733 1 0.650384 0.0503856 0.0487028 0.507199 -3.19362 -0.0799177 0.214823 -0.0152034
1737 1 0.700363 0.049708 0.0492323 0.365277 -3.26252 0.422109 0.0551519 -0.466322
1734 1 0.676524 0.0760043 0.049984 0.804355 -3.29408 -0.301244 -0.322984 -0.169076
139 1 0.724743 0.0505431 0.0237738 0.48454 -3.32579 0.0590615 0.188633 0.104069
141 1 0.751727 0.0485306 -0.000321183 1.45164 -3.23246 -0.858025 -0.110964 0.29874
144 1 0.750795 0.0757991 0.0242708 0.731062 -3.18984 -0.136352 -0.969796 -0.126591
148 1 0.798948 0.075343 0.0235797 0.851474 -3.32143 -0.216884 -0.293061 0.100368
145 1 0.801411 0.049898 1.00149 1.07018 -3.28944 -0.347568 0.0900091 -0.357238
1745 1 0.802182 0.0504443 0.04993 0.569602 -3.32082 -0.105856 0.0833712 -0.245367
151 1 0.874563 0.0478678 0.0253235 6.73514 -3.23512 -0.375285 0.375367 0.0330323
152 1 0.853445 0.0743309 0.0219862 5.57034 -3.28795 0.252277 0.0439902 0.171362
146 1 0.825838 0.0739722 1.00123 0.66986 -3.28406 -0.0239978 0.0549037 -0.321934
150 1 0.878778 0.0771573 0.996858 6.14 -3.2938 -0.32911 0.101457 0.379558
1750 1 0.872038 0.0733835 0.050572 6.39657 -3.26731 -0.17709 0.292193 0.320066
155 1 0.925216 0.0508214 0.026277 0.403231 -3.31287 -0.282943 -0.216186 -0.0328361
156 1 0.895726 0.0751976 0.027662 6.30125 -3.31971 0.464834 -0.0719347 -0.637815
1754 1 0.924901 0.0733677 0.0507135 1.05019 -3.31383 -0.189653 0.36261 0.041198
154 1 0.924777 0.07438 0.00386245 6.8032 -3.27338 -0.720865 -0.116232 -0.577534
84 1 -0.000718043 0.0773553 0.028849 1.88291 -3.30022 0.148437 -0.829841 -0.999261
160 1 0.950116 0.0753801 0.0258742 0.672126 -3.19313 -0.0548134 0.0827822 0.169928
158 1 0.972524 0.0802661 0.00152554 4.62906 -3.26299 0.0870912 -0.669932 -0.121546
157 1 0.952073 0.0511787 0.00300044 2.34655 -3.29886 -0.243611 -0.103318 -0.649833
163 1 0.0262336 0.100792 0.0264132 0.32843 -3.27803 -0.209969 0.101919 -0.380014
168 1 0.0506835 0.125605 0.025433 0.398868 -3.21534 -0.064806 -0.049958 -0.477886
162 1 0.0266113 0.126975 0.9996 1.09275 -3.30706 -0.0174992 -0.0981923 -0.192848
1845 1 0.0490665 0.151392 0.0526378 1.16658 -3.24957 -0.143499 0.0374348 -0.160173
1762 1 0.0261355 0.12592 0.0491968 0.641221 -3.33785 -0.442783 -0.00348837 0.237967
167 1 0.0736265 0.100225 0.0262913 0.514667 -3.30314 0.356271 -0.130459 -0.05888
172 1 0.0993511 0.124379 0.024168 0.440827 -3.35432 -0.239577 0.0943757 0.242539
1766 1 0.0727963 0.126893 0.0498873 1.48896 -3.29946 0.844944 -0.165056 0.155114
247 1 0.0733964 0.150666 0.0256305 0.527482 -3.26699 0.318662 -0.21227 0.146956
249 1 0.0989594 0.150822 0.998703 0.470364 -3.28277 -0.0265292 -0.259081 0.469909
175 1 0.174122 0.100673 0.0250142 0.589138 -3.34574 0.12385 -0.104448 -0.359752
171 1 0.126825 0.100383 0.0242565 0.535988 -3.30228 -0.00899105 0.167944 0.266447
176 1 0.150557 0.12778 0.0231245 1.7568 -3.20113 0.263675 -1.1784 0.415125
1774 1 0.173538 0.127585 0.0502601 1.17209 -3.34354 0.271537 -0.344715 -0.306146
1773 1 0.150041 0.0997399 0.0493807 0.633298 -3.20821 0.279353 0.292423 -0.0106646
1770 1 0.127913 0.124575 0.0492467 1.01772 -3.29798 -0.382977 0.104586 -0.00306118
170 1 0.123444 0.125212 -0.000757326 0.762032 -3.31475 0.0311153 -0.0295088 -0.223815
1777 1 0.200572 0.101744 0.0491038 1.30126 -3.29083 -0.238942 0.1049 -0.16028
180 1 0.19895 0.12461 0.0237279 0.576201 -3.31926 0.137296 0.149063 0.392102
1778 1 0.226924 0.125264 0.0489879 1.08084 -3.2374 -0.458001 -0.496496 0.477534
259 1 0.224211 0.149738 0.0226795 1.13149 -3.29276 0.228868 0.0839306 0.183741
178 1 0.225318 0.124968 0.999391 0.289687 -3.32253 0.184172 0.0878193 0.0054671
183 1 0.273514 0.100539 0.0257916 0.568811 -3.30809 -0.00190474 0.0907479 -0.283241
184 1 0.249223 0.126343 0.0249131 0.490714 -3.21755 -0.022809 -0.409165 -0.381639
263 1 0.274415 0.149376 0.0282069 2.79439 -3.16092 -0.123321 -0.164632 -1.29147
1782 1 0.27306 0.12432 0.0490041 0.858363 -3.27177 0.128682 -0.0970244 0.454967
182 1 0.270995 0.124943 0.99981 3.14684 -3.24968 0.778901 0.242609 0.197612
181 1 0.249668 0.0998601 -0.000798477 0.229269 -3.26414 -0.122755 -0.207434 0.110235
261 1 0.25125 0.151046 0.998955 0.703648 -3.32777 0.0539583 -0.000163535 0.200711
187 1 0.329347 0.101291 0.0252408 2.17329 -3.26556 -0.877589 0.0287923 -0.0178377
188 1 0.299416 0.125439 0.0246296 0.752754 -3.3579 0.285386 -0.126989 0.10319
1786 1 0.327736 0.124553 0.0497887 0.705689 -3.37633 0.0903894 0.208366 0.056275
185 1 0.298375 0.101953 0.00148591 1.33936 -3.26842 0.215001 -0.0532001 0.0827607
186 1 0.327123 0.123391 -0.000388019 1.79537 -3.24616 0.0183308 0.694454 0.562519
269 1 0.34829 0.15241 0.9977 1.77727 -3.36859 -0.181105 -0.192815 0.302638
192 1 0.353327 0.124651 0.0245308 0.739153 -3.25221 -0.0381269 0.396252 0.0822617
196 1 0.400785 0.126847 0.023897 0.689003 -3.29594 -0.619892 -0.321097 -0.260322
271 1 0.374278 0.151756 0.024103 0.795489 -3.28356 -0.126221 -0.166653 -0.345022
189 1 0.351209 0.100524 0.999314 0.441862 -3.24519 0.533688 -0.174502 -0.0734363
1797 1 0.447473 0.101359 0.0481112 1.79644 -3.26732 0.068966 -0.496411 0.0786826
200 1 0.450105 0.125875 0.0263758 0.567819 -3.31033 0.198152 -0.0610634 -0.374821
1794 1 0.423654 0.12494 0.0487466 1.00656 -3.24344 -0.182979 0.372921 0.147019
197 1 0.449681 0.0999037 -0.00122972 0.770053 -3.24584 0.267787 0.381521 0.396003
199 1 0.474189 0.0994235 0.0266799 0.934232 -3.29178 -0.289834 0.581504 -0.493976
1801 1 0.497398 0.0992261 0.0518237 0.836775 -3.27199 0.00966015 0.486056 -0.15405
204 1 0.502985 0.125964 0.0286475 1.63408 -3.28025 -0.13946 -0.307794 -0.243067
198 1 0.479793 0.125635 0.00348165 3.16811 -3.24621 -0.998638 -0.309893 -0.067722
279 1 0.478612 0.150587 0.0269054 1.23821 -3.33827 -0.661926 -0.116099 -0.0760495
281 1 0.502412 0.149138 0.00076396 0.887276 -3.26256 0.090394 0.480687 -0.142642
1802 1 0.524498 0.123089 0.0534955 1.72291 -3.2543 0.338878 0.471205 -0.281009
202 1 0.526106 0.123108 0.00142221 1.3963 -3.25977 0.11306 0.649466 -0.0879537
1805 1 0.549125 0.0974794 0.0512373 0.793717 -3.23842 0.0778148 0.330689 -0.173533
208 1 0.548823 0.124444 0.0276776 0.848734 -3.27362 0.0922637 0.29957 -0.361358
1806 1 0.572932 0.125034 0.0503024 0.567682 -3.2364 0.296749 -0.0643403 -0.461905
287 1 0.574964 0.150117 0.0261549 0.758545 -3.27148 -0.590662 -0.432493 -0.307635
205 1 0.550603 0.0998073 0.000984306 0.473633 -3.23514 0.457815 -0.0654245 0.0748622
212 1 0.599251 0.125258 0.0232843 0.550057 -3.26228 -0.339812 -0.515095 0.459525
1889 1 0.601699 0.149726 0.049586 6.47967 -3.22619 -0.341946 -0.424435 -0.142995
291 1 0.624454 0.147164 0.0234465 1.54259 -3.17904 0.0865861 0.538908 0.120856
216 1 0.649909 0.125118 0.0256096 0.844795 -3.22573 0.142982 -0.381325 -0.613446
220 1 0.69669 0.127198 0.0245411 1.65605 -3.29747 0.27773 -0.23986 -0.281351
214 1 0.671369 0.125644 -0.00227015 1.50307 -3.34816 0.460546 -0.114755 0.491747
1893 1 0.647867 0.149801 0.0499521 0.713619 -3.32566 0.150064 0.132027 -0.0187333
1814 1 0.673471 0.12437 0.0496739 0.563958 -3.27817 0.183813 0.270204 0.344226
1813 1 0.650215 0.0988872 0.0502038 0.592276 -3.27759 -0.734023 -0.0317553 -0.333877
297 1 0.698622 0.150717 0.998719 0.186784 -3.30552 -0.128676 0.0302767 0.187169
219 1 0.726447 0.100492 0.0239566 0.579199 -3.24209 -0.13967 0.184289 0.222221
221 1 0.752021 0.100934 0.999611 1.18124 -3.27691 -0.388793 -0.102387 -0.151422
224 1 0.748055 0.125784 0.0254755 0.873971 -3.30329 0.833283 0.0406284 0.0457483
1818 1 0.724307 0.126006 0.0496099 0.875482 -3.29572 0.035732 -0.512587 -0.240071
299 1 0.724816 0.150096 0.0213685 1.55736 -3.26759 -0.108889 0.588258 0.607836
218 1 0.723092 0.126044 1.00104 1.32075 -3.2948 0.36253 -0.226969 -0.462886
223 1 0.772067 0.0998395 0.02522 1.35103 -3.20422 0.807583 0.77565 0.0532852
228 1 0.800874 0.125339 0.0239692 0.724108 -3.33739 -0.0394921 -0.180749 0.173618
303 1 0.774537 0.150572 0.0266763 1.64282 -3.28672 -0.00918547 -0.17092 -0.719311
225 1 0.798454 0.0997172 1.00118 1.18951 -3.33653 0.180828 -0.0732551 0.0455996
231 1 0.874746 0.102787 0.023247 1.51454 -3.27123 0.463396 -0.181168 -0.0591316
227 1 0.826344 0.0980106 0.0247438 1.62325 -3.25252 0.131381 0.683832 -0.293522
229 1 0.849856 0.100298 1.00008 0.723087 -3.30586 0.215506 0.1345 -0.387401
232 1 0.849082 0.12599 0.0228883 0.72434 -3.32713 -0.149735 0.168722 0.128744
230 1 0.87751 0.127372 1.00022 1.22301 -3.28294 -0.459295 -0.165624 -0.0277247
226 1 0.825042 0.126504 -0.00145431 0.623754 -3.29631 -0.299462 -0.368452 0.155284
235 1 0.924998 0.100018 0.0260084 0.970725 -3.27873 -0.197373 0.0753214 0.174305
236 1 0.902242 0.127143 0.0241604 0.834472 -3.29 0.00145551 -0.152283 0.156033
233 1 0.902649 0.102582 0.999201 5.71464 -3.32393 -0.0237179 -0.148116 0.0673576
164 1 0.00165062 0.127613 0.0232365 2.10953 -3.32262 -0.312823 -0.333438 0.538441
239 1 0.974183 0.101395 0.02667 0.874 -3.29918 -0.310788 0.229259 -0.0622209
240 1 0.949745 0.126897 0.025141 0.561005 -3.36747 -0.386066 -0.192243 0.0438141
238 1 0.972956 0.123507 0.000355047 2.45688 -3.26672 0.0588158 0.219342 0.175539
1761 1 1.00135 0.0995093 0.0497287 0.967877 -3.21267 0.015912 0.501985 0.232396
1838 1 0.975413 0.124833 0.0500584 0.486174 -3.31386 -0.0889843 0.0525954 -0.34229
243 1 0.0281071 0.150795 0.0259831 1.35908 -3.25259 -0.612435 0.446617 0.310548
248 1 0.0528024 0.177945 0.0280235 6.01749 -3.3075 -0.469525 -0.387882 -0.423419
244 1 0.000144419 0.176217 0.0246497 0.249244 -3.30369 0.177035 -0.153629 0.302692
245 1 0.0494856 0.153794 1.00223 2.05392 -3.20992 0.323482 -0.30214 -0.696313
1849 1 0.102403 0.148363 0.0495552 2.16533 -3.33 -0.417453 0.0663165 0.307795
252 1 0.0968132 0.174322 0.0272991 5.73503 -3.30603 0.500534 0.353236 -0.654181
251 1 0.124345 0.148759 0.0246012 0.776289 -3.22794 -0.413493 0.614173 -0.278954
255 1 0.174537 0.151723 0.0248092 1.13426 -3.28578 0.45709 0.0631963 0.048554
256 1 0.14737 0.176646 0.0250638 1.73521 -3.28874 0.637905 -0.588128 0.111464
331 1 0.123238 0.19958 0.0268119 0.881471 -3.29342 -0.411888 0.182268 -0.125091
1853 1 0.148932 0.151704 0.0483702 1.20869 -3.30899 -0.119589 0.167166 0.513245
1850 1 0.123042 0.176148 0.050468 1.04315 -3.27623 0.278587 -0.188521 -0.0268198
335 1 0.177198 0.198999 0.0255849 0.916469 -3.33361 0.00576113 0.0862326 -0.202688
260 1 0.201624 0.17426 0.0246287 0.420173 -3.26299 -0.246734 -0.151756 -0.144569
1857 1 0.203974 0.149234 0.0503409 2.13603 -3.28883 -0.396352 0.0865042 -0.210694
1854 1 0.178372 0.172861 0.0495799 2.18246 -3.28238 -0.617341 0.223947 0.0338948
1858 1 0.226878 0.17604 0.0517092 1.5287 -3.26541 -0.00778262 -0.431458 -0.399844
257 1 0.198031 0.14886 0.99901 1.10945 -3.29585 0.374221 0.470223 0.125257
264 1 0.251337 0.175235 0.0234758 0.614106 -3.3191 -0.0796496 -0.321512 0.0699196
262 1 0.276763 0.175365 -0.00229653 6.27896 -3.21788 0.189009 -0.496658 0.347767
343 1 0.278918 0.199908 0.0243311 2.08673 -3.28804 -0.225816 -0.212091 0.253197
267 1 0.328114 0.149158 0.0275361 6.68569 -3.31406 -0.26421 -0.191675 -0.345981
268 1 0.299058 0.172048 0.0241028 2.07883 -3.22928 0.545197 0.144293 0.146308
1866 1 0.325431 0.173641 0.0506419 0.525207 -3.36906 0.13954 -0.048128 -0.0576395
272 1 0.348162 0.175556 0.0234662 1.32957 -3.25843 -0.000146675 -0.191944 0.11131
349 1 0.348221 0.198568 1.00208 1.76016 -3.24883 -0.00636909 0.357703 -0.799484
1865 1 0.299029 0.14838 0.0507061 0.696294 -3.26152 0.852182 0.0964984 -0.0266086
266 1 0.319969 0.175312 0.997424 5.67936 -3.2708 0.500026 0.222757 -0.0159355
265 1 0.302638 0.148132 0.00171912 6.50956 -3.30062 -0.294813 -0.0752528 0.132568
273 1 0.398352 0.151431 0.999013 1.00615 -3.31376 0.70335 -0.128143 -0.147744
276 1 0.40213 0.175344 0.0231207 1.39702 -3.34695 -0.0408681 0.198578 0.263811
351 1 0.374403 0.200386 0.0248281 0.261764 -3.28787 0.422568 -0.0659274 -0.029964
270 1 0.375637 0.17643 0.999762 0.718189 -3.26342 -0.454136 -0.151377 -0.0902771
275 1 0.424985 0.149909 0.024588 0.281069 -3.28868 0.0214758 0.184834 0.0435725
280 1 0.448272 0.174602 0.0262973 0.926994 -3.31779 -0.132898 -0.04092 -0.1399
274 1 0.426224 0.175065 0.997896 1.3908 -3.25194 -0.296726 -0.857606 0.285785
1877 1 0.449154 0.151104 0.0513393 0.574019 -3.29145 0.0869766 -0.471494 -0.55586
283 1 0.52555 0.151478 0.0252935 0.766887 -3.26239 0.231748 -0.233488 0.183659
278 1 0.472906 0.173609 1.0026 1.62023 -3.33808 0.240347 -0.0872684 -0.364159
284 1 0.501528 0.175191 0.0261608 0.627087 -3.19561 -0.660736 0.0211346 -0.240193
363 1 0.524889 0.199426 0.0256403 0.900335 -3.29013 0.269901 0.37197 -0.319833
1881 1 0.501715 0.151183 0.0524677 1.0288 -3.29366 -0.0187646 -0.400772 -0.316917
282 1 0.525343 0.175537 1.00192 0.973746 -3.22309 0.0930855 0.179432 -0.30936
288 1 0.55116 0.176193 0.0242273 0.815162 -3.26586 0.152325 -0.131221 0.459193
367 1 0.577762 0.199301 0.0236492 2.23925 -3.32093 -0.229782 0.151703 -0.0534631
1885 1 0.548878 0.15149 0.0500559 1.0166 -3.34278 -0.158538 -0.139978 0.121387
292 1 0.599899 0.171537 0.0238899 6.79485 -3.24833 0.281978 0.793401 0.104415
1890 1 0.622266 0.175223 0.0519261 6.07184 -3.32175 0.171773 0.289316 -0.0247926
1973 1 0.647308 0.199569 0.0500867 1.16628 -3.27389 0.237547 -0.445433 -0.31635
295 1 0.671573 0.151834 0.0232315 0.981324 -3.31757 0.142389 -0.0642975 -0.0138386
296 1 0.645107 0.174551 0.0250304 1.43765 -3.33416 0.0511476 0.0347575 0.0178674
300 1 0.699048 0.175857 0.0228914 0.226523 -3.29534 -0.0108014 -0.356477 0.0388342
375 1 0.67213 0.198319 0.0248569 0.806731 -3.29675 0.339941 0.0389614 -0.102036
1894 1 0.674465 0.173896 0.0482273 0.36304 -3.29429 -0.359435 0.152324 -0.0678449
301 1 0.751778 0.149563 0.999833 0.99644 -3.27225 -0.309473 0.168689 0.296168
304 1 0.750212 0.176943 0.023378 0.650279 -3.24102 0.334865 -0.497003 -0.264396
1898 1 0.726559 0.176171 0.0464565 6.11228 -3.25388 -0.528274 0.107676 0.391357
298 1 0.725069 0.176851 0.999427 0.793199 -3.28813 -0.0161741 -0.370994 -0.1847
381 1 0.750132 0.20247 0.999241 0.499791 -3.31714 -0.28428 -0.187548 -0.430273
305 1 0.798968 0.150146 0.995176 2.60781 -3.18375 -0.14858 0.186634 1.15094
383 1 0.774343 0.200848 0.0228948 0.502235 -3.25209 0.395111 0.28507 -0.291194
308 1 0.799147 0.175522 0.023853 0.659154 -3.32367 -0.204355 0.0414019 -0.0945408
302 1 0.775071 0.176022 0.998568 0.516767 -3.30539 0.104787 0.226825 0.315257
309 1 0.849705 0.152283 0.99875 0.456582 -3.30994 0.193315 -0.260902 -0.0370066
311 1 0.8754 0.150803 0.0233758 0.550586 -3.32237 -0.132366 0.267584 0.0862406
307 1 0.823252 0.152004 0.0211676 1.20713 -3.24217 -0.219004 -0.546182 -0.0223103
312 1 0.846746 0.175386 0.0236204 0.77417 -3.29716 0.365489 0.395529 -0.215024
306 1 0.82344 0.175549 0.995588 1.55652 -3.27604 0.18132 -0.0222086 0.641508
315 1 0.925033 0.153007 0.0229666 0.923567 -3.29176 0.375439 -0.117834 0.525831
316 1 0.899119 0.177313 0.022785 0.696336 -3.27827 0.453785 -0.210323 0.340908
313 1 0.900753 0.153146 0.999562 0.72913 -3.27258 -0.537542 0.175349 -0.494601
1913 1 0.900664 0.152196 0.0481216 0.390128 -3.32723 0.177571 0.149453 0.153086
1914 1 0.925014 0.177834 0.0496091 0.86206 -3.24031 -0.701474 -1.00147 -0.387935
319 1 0.974796 0.150959 0.0248572 0.344575 -3.23545 0.227349 -0.221443 0.109189
320 1 0.951957 0.17536 0.0252894 0.669176 -3.26133 -0.332587 0.293218 -0.134026
1841 1 -0.00120913 0.149465 0.0505106 0.550883 -3.28085 0.226555 0.0362356 -0.360744
1917 1 0.950646 0.15096 0.0506669 0.40348 -3.29083 -0.293909 -0.344357 -0.624794
1918 1 0.975372 0.174332 0.0496209 0.465734 -3.3053 0.36545 0.550626 0.314229
323 1 0.0241432 0.20088 0.0260439 0.545003 -3.34977 0.371552 0.146545 -0.465865
321 1 1.00005 0.201887 -0.00116403 0.443359 -3.24756 0.166005 -0.225128 0.370171
328 1 0.0503343 0.22654 0.0243547 0.332304 -3.31406 -0.0636413 -0.0911678 -0.178262
324 1 -0.00326429 0.22661 0.0236648 1.27483 -3.21535 0.730256 -0.0995674 0.209986
1922 1 0.023891 0.224932 0.0491037 0.44211 -3.26468 -0.113465 0.265378 -0.254392
1925 1 0.0506968 0.201111 0.0507883 0.568886 -3.28588 -0.17775 -0.186728 -0.0377564
327 1 0.074516 0.202902 0.0251964 1.27683 -3.27467 0.521473 -0.16456 -0.369766
332 1 0.102359 0.226884 0.0251985 0.927625 -3.26873 -0.236648 -0.376075 -0.346922
1926 1 0.0773007 0.224181 0.0499041 1.63046 -3.26822 -0.229518 0.854909 -0.0301139
329 1 0.101206 0.200609 0.999951 0.388379 -3.31264 -0.0632173 0.101775 0.155044
326 1 0.0771402 0.226191 -0.000571291 0.507616 -3.33075 -0.204088 0.192455 -0.145858
336 1 0.14962 0.223992 0.0261633 0.82367 -3.24937 -0.210404 -0.177827 0.154586
1930 1 0.123717 0.223509 0.0505145 1.21855 -3.2902 0.190421 -0.372459 0.174612
330 1 0.127076 0.225813 1.00053 0.34791 -3.23065 -0.692522 -0.0862599 0.343221
1933 1 0.151181 0.198891 0.0493286 0.883767 -3.33727 0.0818646 0.1531 0.239466
334 1 0.175196 0.225842 0.00377869 2.90358 -3.2638 0.127915 -0.497567 -0.843122
339 1 0.225003 0.19768 0.0232426 1.49814 -3.26998 0.0681183 0.411081 0.188713
1937 1 0.200581 0.197619 0.0511349 1.62562 -3.26954 0.169445 0.651297 -0.208845
340 1 0.205379 0.224789 0.0216371 7.09454 -3.22896 -0.465261 -0.30466 0.5055
338 1 0.229022 0.22432 0.997258 2.16942 -3.2448 -0.264437 -0.371547 0.358883
1934 1 0.177124 0.224333 0.0475473 1.56999 -3.28204 -0.172414 -0.474301 0.17574
1938 1 0.22448 0.226107 0.0496434 1.47072 -3.28261 0.407371 -0.710698 0.0104253
344 1 0.250823 0.223302 0.0243021 0.932992 -3.31477 -0.0742496 -0.163925 0.129084
1942 1 0.276114 0.224029 0.0508605 0.447372 -3.24447 -0.0423925 -0.150424 -0.443522
342 1 0.274399 0.22582 0.998566 0.490101 -3.35115 -0.196688 0.166839 0.0710533
1941 1 0.250028 0.199998 0.048592 0.813721 -3.31132 0.175236 0.186528 0.0330725
1949 1 0.35078 0.200879 0.0491217 0.761298 -3.25706 -0.437143 -0.646688 0.182814
345 1 0.297543 0.201091 0.996244 5.26896 -3.23397 0.145703 0.279623 0.161551
347 1 0.322175 0.197775 0.0235107 6.07034 -3.29031 -0.38346 0.329226 0.371644
348 1 0.300464 0.225068 0.0253483 0.648279 -3.25064 0.0998954 0.151292 0.00634429
352 1 0.347017 0.22495 0.0261796 1.3805 -3.28215 0.131083 -0.229639 -0.493673
346 1 0.322793 0.224596 1.00039 1.09276 -3.3088 0.262427 0.134167 -0.27887
356 1 0.400009 0.227105 0.0247202 1.03367 -3.24959 -0.148326 -0.741866 -0.251743
350 1 0.373876 0.22352 1.00149 1.36062 -3.27794 -0.0289038 0.346683 0.0433553
353 1 0.399791 0.200551 1.00011 0.283646 -3.23793 0.187944 0.00135747 0.271061
355 1 0.425147 0.202 0.0244603 0.728899 -3.26922 -0.489128 -0.188179 0.263635
360 1 0.448546 0.226284 0.0256609 0.665407 -3.275 0.0129118 -0.371254 -0.428572
354 1 0.423732 0.226208 0.998866 0.611531 -3.33304 0.0718072 -0.0929508 0.0691109
437 1 0.450173 0.249299 -3.60936e-05 0.538547 -3.28652 -0.159034 0.134321 -0.321409
359 1 0.474607 0.198816 0.025062 0.408988 -3.22871 -0.539404 0.317858 -0.58426
364 1 0.500525 0.22516 0.023954 0.632766 -3.3128 -0.227619 -0.0369682 -0.11506
1962 1 0.523721 0.225231 0.0491644 0.574094 -3.31565 0.0934635 -0.125526 0.0614765
358 1 0.475804 0.224369 0.998818 0.92431 -3.33339 -0.26115 0.00984794 0.403815
368 1 0.550054 0.224502 0.025288 0.836584 -3.34639 -0.286988 0.0183168 -0.386524
1966 1 0.572211 0.226465 0.0507961 1.72068 -3.20814 0.630383 -0.337447 -0.68205
2045 1 0.548984 0.250538 0.0492117 0.34491 -3.22963 -0.0658989 0.0552845 0.0485388
371 1 0.623464 0.200229 0.0217867 6.24095 -3.30155 -0.671934 -0.105827 0.686386
372 1 0.598978 0.226654 0.024163 0.839985 -3.33084 -0.464229 -0.24418 0.301084
1970 1 0.625492 0.224753 0.0481236 0.655369 -3.24476 -0.544229 -0.0232433 0.37087
2049 1 0.598411 0.250618 0.0490623 0.630164 -3.34662 0.149049 -0.176575 -0.298086
376 1 0.65005 0.222828 0.0252483 1.16954 -3.20431 -0.228703 0.315754 -0.545756
380 1 0.700944 0.225533 0.0231329 0.923403 -3.32557 -0.225666 -0.249825 0.0915126
455 1 0.672053 0.250037 0.022388 1.59051 -3.24939 0.339908 -0.0461308 0.174228
1974 1 0.674079 0.222671 0.0488024 0.866213 -3.29541 0.440769 0.186861 0.0808468
2057 1 0.69752 0.248001 0.0463357 6.8875 -3.3053 0.0500165 0.0110128 0.281154
1977 1 0.699862 0.198418 0.0476558 0.227965 -3.26988 -0.0762417 0.232645 -0.0291053
379 1 0.724479 0.199803 0.0227285 0.53462 -3.27179 0.228223 0.414842 0.239272
384 1 0.748835 0.226456 0.0228755 0.673727 -3.32953 0.166335 -0.0567768 -0.062398
2061 1 0.749905 0.251823 0.0481324 0.765232 -3.30662 -0.515768 -0.0558884 0.296109