ITEM: TIMESTEP
7250
ITEM: NUMBER OF ATOMS
32000
ITEM: BOX BOUNDS pp pp pp
2.8062660243839539e+00 7.8193733975616098e+01
-1.3891778571407514e+00 8.2389177857140993e+01
-1.3934926529910427e+00 8.2393492652990432e+01
ITEM: ATOMS id type xs ys zs c_csym c_peratom fx fy fz
8 1 0.0513405 0.025785 0.0257123 0.651176 -3.27809 0.428712 0.20217 -0.124597
4 1 0.000126213 0.0258234 0.0250703 0.447891 -3.29508 -0.159773 0.163765 0.152965
3 1 0.0249349 0.00254044 0.0239099 0.605585 -3.27039 0.0566886 -0.652315 -0.136436
1605 1 0.0483944 0.000859692 0.0481351 0.800221 -3.31541 0.530029 -0.428008 0.366685
12 1 0.0980112 0.0258749 0.0250221 0.650707 -3.37349 0.173599 0.0294207 -0.085779
87 1 0.0752259 0.0529687 0.024701 1.39271 -3.30828 0.0466706 -0.626896 -0.0193791
1606 1 0.0756734 0.0244239 0.0518501 1.13208 -3.32741 0.117763 -0.0743462 -0.34018
7 1 0.0738259 0.000371296 0.0236071 0.389078 -3.28146 -0.0346186 -0.129504 0.494209
16 1 0.149763 0.0261175 0.0260756 0.497041 -3.3156 -0.0862674 -0.495886 -0.14184
1610 1 0.124592 0.0244858 0.0511678 0.309785 -3.32501 0.0586667 -0.171634 -0.21086
10 1 0.125269 0.0254198 7.81106e-08 0.210257 -3.34537 -0.162266 -0.221832 0.00504217
11 1 0.124326 0.000272843 0.0263837 0.295309 -3.34734 0.312474 0.140258 -0.445863
20 1 0.200625 0.0250821 0.0233562 0.405518 -3.24111 0.034196 -0.321366 0.431462
24 1 0.251118 0.0245474 0.0256429 0.33317 -3.34283 -0.3605 0.0103795 0.0700448
1618 1 0.221892 0.0250229 0.0507952 2.17421 -3.34284 0.688746 0.0617849 -0.417408
23 1 0.277006 0.00177329 0.0268994 0.866619 -3.28703 -0.529734 -0.496822 -0.310569
103 1 0.274552 0.049524 0.0267726 0.66196 -3.28397 0.464844 0.152591 -0.229772
99 1 0.225012 0.0493291 0.0232074 0.514706 -3.29499 0.115844 -0.0777385 0.276489
28 1 0.300655 0.026262 0.0245873 0.694637 -3.28182 0.0768665 -0.184795 0.616347
1705 1 0.300512 0.0510581 0.0515086 0.613036 -3.34437 -0.321218 -0.0649683 -0.341207
107 1 0.326247 0.0486675 0.0250764 0.468752 -3.33271 -0.0855221 0.449666 0.134496
27 1 0.325043 -0.000922059 0.0254503 0.787157 -3.30918 0.0435669 0.359033 -0.20574
105 1 0.300547 0.0496569 7.65871e-05 0.479014 -3.20362 -0.0747259 0.187953 0.395991
32 1 0.349301 0.0247091 0.0244881 0.460484 -3.33283 0.225926 0.145178 0.22527
30 1 0.37628 0.0259248 -0.00133531 0.824327 -3.27201 -0.183184 -0.260936 0.205225
31 1 0.373636 0.00158543 0.0252558 0.379775 -3.2664 0.694968 0.471921 0.0560336
1630 1 0.373564 0.0265903 0.0519067 0.801203 -3.31069 0.266389 -0.0282799 -0.682756
1629 1 0.348638 0.000928798 0.0514247 0.506386 -3.31624 -0.0137886 0.257631 -0.0618043
36 1 0.397815 0.0264656 0.0242908 1.23523 -3.28921 0.405158 -0.739047 0.418926
35 1 0.424225 0.00100733 0.0249884 0.231624 -3.32787 0.225747 0.190457 0.0476885
1633 1 0.398615 0.00200599 0.0515275 0.638736 -3.31021 0.169056 -0.153054 -0.540167
40 1 0.449349 0.0262943 0.0221044 2.05838 -3.26084 0.805984 -0.714446 0.917446
1717 1 0.448964 0.049267 0.0512516 0.700803 -3.3037 0.200126 0.0386418 -0.191454
44 1 0.500926 0.0251592 0.0251461 0.546571 -3.3253 -0.720058 -0.090624 0.253364
39 1 0.475578 -0.00195833 0.0243011 0.96177 -3.31001 -0.284205 0.478886 0.0127741
1638 1 0.475402 0.025679 0.052534 1.63765 -3.30313 -0.513985 0.205967 -0.844954
38 1 0.47504 0.0246045 -0.000338254 0.222991 -3.29909 -0.136319 -0.0226814 0.13703
48 1 0.549658 0.025224 0.0234236 1.01767 -3.26667 0.148128 -0.315344 0.724525
43 1 0.523038 -0.000731017 0.0255855 0.518715 -3.30968 0.11746 0.229164 0.185432
1645 1 0.549851 0.000751588 0.0507323 0.322534 -3.33979 0.00218136 -0.0348368 -0.341661
52 1 0.598885 0.0275879 0.0243413 0.614835 -3.34933 0.0865267 -0.582376 0.0436784
47 1 0.574062 0.00100949 0.0250357 0.220726 -3.2805 0.153081 0.126975 0.118957
1646 1 0.572042 0.0277571 0.0508274 1.3348 -3.3269 0.306294 -0.519464 -0.375076
1649 1 0.597363 0.0017376 0.0493804 0.557091 -3.32993 0.311413 0.215036 0.0524073
49 1 0.597147 0.0014566 -0.000546728 1.00796 -3.23654 0.765683 -0.447798 0.796367
56 1 0.648284 0.0255192 0.0211612 2.04302 -3.30321 0.306736 -0.264287 0.752089
1653 1 0.65136 0.00188032 0.0518285 1.97081 -3.30498 -0.48775 -0.260606 -0.358545
131 1 0.624025 0.0516574 0.024179 0.363106 -3.2929 -0.13631 -0.175367 -0.217178
51 1 0.623768 0.00030611 0.0256163 0.905653 -3.36629 -0.184025 0.281944 -0.338609
1650 1 0.625018 0.0248861 0.0486811 0.943881 -3.32101 -0.0679328 -0.0716191 0.0789794
55 1 0.67617 0.0010597 0.0234805 0.761163 -3.37589 -0.158471 0.0630519 0.0476712
60 1 0.700795 0.0258462 0.0260686 0.875844 -3.31667 -0.163884 -0.0822566 -0.210927
1654 1 0.673909 0.0256601 0.0481343 0.72959 -3.26565 0.0824172 -0.105306 0.0520619
64 1 0.750238 0.0247358 0.0230088 1.31558 -3.29266 -0.334322 -0.0545844 0.648594
59 1 0.723244 -0.000263519 0.025175 0.613581 -3.37045 0.115853 0.0668736 0.119353
63 1 0.77464 -0.000332276 0.0245676 0.502212 -3.34228 0.0264045 -0.0141166 0.0442101
58 1 0.723681 0.0249361 0.000385 0.395703 -3.29261 0.168065 -0.0385608 -0.28418
1661 1 0.748604 0.00182386 0.0505778 0.690454 -3.31207 -0.0487253 -0.441246 -0.335079
68 1 0.79908 0.0256336 0.0258726 0.362445 -3.34342 0.168281 0.0556601 -0.0374364
147 1 0.827989 0.0502209 0.0248585 1.27429 -3.28445 -0.666836 -0.101854 0.0829667
67 1 0.823636 0.00107002 0.0275499 1.60728 -3.27505 0.687273 0.0353567 -0.48941
1665 1 0.800422 0.000308541 0.0504423 0.320349 -3.29882 -0.501841 0.0436971 0.187344
1666 1 0.826104 0.0256927 0.0505136 0.292242 -3.33482 -0.348708 -0.276639 -0.196924
1745 1 0.800239 0.0506522 0.0509139 0.393857 -3.3436 0.143831 -0.408743 0.000388912
66 1 0.825805 0.0263683 0.00149675 0.494727 -3.33357 0.0765824 -0.295792 -0.0766351
72 1 0.851707 0.023943 0.02615 0.879963 -3.35801 0.13247 0.156683 0.174559
151 1 0.875405 0.050956 0.0242628 0.459683 -3.24817 -0.356091 -0.30375 0.73715
71 1 0.874981 -0.00172949 0.0246899 1.28748 -3.26711 0.371258 0.621628 0.438173
69 1 0.84955 0.00092393 0.00163959 0.868741 -3.35314 0.0877635 0.0323164 -0.592539
76 1 0.898722 0.0254805 0.0247404 0.854296 -3.35605 0.0619185 -0.220342 0.0661295
75 1 0.926867 0.000780837 0.0232046 1.43756 -3.26326 -0.436518 -0.133997 0.581501
80 1 0.951018 0.0243328 0.0266842 0.810182 -3.27737 -0.132916 0.363073 -0.458109
79 1 0.972958 -0.000909091 0.0233425 1.64268 -3.24578 0.65503 0.367355 0.35658
157 1 0.949854 0.0497797 0.000811205 0.276619 -3.33441 0.178628 -0.0683622 -0.105373
78 1 0.975625 0.026112 0.000969374 0.518279 -3.30898 -0.366998 0.341281 -0.445323
77 1 0.950303 0.00143017 -0.000721027 0.581623 -3.24652 0.277592 0.0141312 -0.569967
83 1 0.0272487 0.0495596 0.0269538 1.22841 -3.31392 -0.52192 0.559575 -0.447601
88 1 0.0497558 0.0759734 0.0256299 0.542256 -3.25058 -0.107569 -0.450273 -0.319144
84 1 0.000283716 0.0751951 0.0256415 0.23635 -3.379 0.157517 0.224593 -0.134524
1765 1 0.0513298 0.101871 0.051291 0.900619 -3.25305 0.1964 -0.343114 -0.390967
165 1 0.0499132 0.0993524 -0.00174966 0.644106 -3.34581 0.0537141 0.0403427 0.347055
85 1 0.0505085 0.0514188 -0.000576494 0.268989 -3.35112 -0.0651589 -0.0273782 0.151428
82 1 0.02486 0.0756459 0.0007152 0.433264 -3.29637 0.279833 -0.295999 0.140488
92 1 0.100253 0.0759041 0.0232527 0.604554 -3.29843 0.284179 -0.195095 0.319098
1686 1 0.0748667 0.075475 0.0505749 0.357625 -3.36062 0.284151 0.0968803 -0.115972
86 1 0.0761897 0.0740526 -0.00126613 0.528329 -3.32978 -0.115402 0.405615 -0.0612129
91 1 0.124937 0.0495829 0.0247629 0.111049 -3.32607 -0.104869 0.185247 0.0170325
96 1 0.151409 0.073393 0.0243124 0.477731 -3.35129 -0.234761 0.148858 0.255673
1690 1 0.125547 0.075096 0.0485023 0.388422 -3.33476 -0.15587 -0.269453 0.0489618
95 1 0.175974 0.0474767 0.0238964 1.4572 -3.29041 -0.184221 0.89474 0.0452924
100 1 0.201237 0.0749963 0.0255416 0.729368 -3.32792 -0.123788 0.0099933 -0.478117
175 1 0.175947 0.100566 0.0253286 0.859653 -3.26829 -0.224356 -0.811909 -0.117172
1777 1 0.198411 0.0997952 0.0509533 0.978598 -3.34694 0.741339 -0.279266 0.161252
104 1 0.24884 0.0752053 0.0251298 0.816863 -3.31955 0.195995 -0.0973742 -0.148678
1701 1 0.251096 0.0490637 0.0495423 0.96793 -3.31935 -0.781056 -0.163196 0.306746
179 1 0.225009 0.0997931 0.0231402 1.08899 -3.29948 -0.0734911 -0.259466 0.745382
183 1 0.275969 0.0996013 0.0249602 0.385246 -3.33582 -0.0155986 -0.260217 0.137057
1698 1 0.22664 0.0752288 0.0505919 0.433785 -3.35491 -0.0177807 0.275914 0.0176269
1702 1 0.272607 0.0753268 0.0504099 1.71281 -3.30723 0.98213 -0.348971 -0.0321347
108 1 0.301674 0.073317 0.0264963 0.502748 -3.3705 -0.272787 -0.0199948 0.0427902
187 1 0.326253 0.0971002 0.0245081 1.20061 -3.21017 -0.565741 0.731735 0.0878448
106 1 0.326128 0.0739952 -0.000561319 0.562271 -3.22492 0.484058 -0.19642 0.586928
111 1 0.375509 0.0502145 0.0262584 0.452177 -3.27789 -0.70389 0.103349 -0.193682
112 1 0.350502 0.0754606 0.0253301 0.270962 -3.30633 0.426139 -0.563644 -0.053244
191 1 0.374035 0.102135 0.0259267 0.771584 -3.26634 0.123601 -0.740773 0.0581776
115 1 0.425143 0.0480732 0.0265167 1.51228 -3.21398 -0.139874 0.70402 -0.69491
116 1 0.398724 0.0748394 0.0252224 0.290179 -3.29479 0.320086 0.286003 0.0724677
119 1 0.474826 0.0508124 0.0242845 0.741889 -3.29215 0.388867 -0.781371 0.671876
120 1 0.449442 0.0719113 0.0239153 1.46734 -3.28604 -0.338821 0.794334 0.511738
197 1 0.450234 0.0979801 0.00147166 0.976409 -3.32949 0.16238 0.0895882 -0.325386
124 1 0.503256 0.0747373 0.0246525 1.8883 -3.34614 -0.498418 -0.024732 0.159551
1718 1 0.474995 0.0740965 0.0503298 0.564387 -3.32265 -0.220152 0.191033 -0.425806
123 1 0.526182 0.0482482 0.0251546 1.0184 -3.27413 -0.272798 0.697801 0.110368
128 1 0.550578 0.0759495 0.0256319 0.391326 -3.31843 -0.795393 0.051186 -0.324804
1725 1 0.548354 0.0511287 0.0513048 0.567627 -3.31232 -0.353678 0.159488 -0.229466
1722 1 0.523935 0.0771058 0.0523977 1.65343 -3.22392 0.432441 -0.20244 -1.10265
1801 1 0.497922 0.101784 0.048136 1.11095 -3.25718 0.217995 -0.392836 0.418564
122 1 0.525599 0.0760184 -0.000161346 0.467651 -3.30987 0.0575363 -0.143396 -0.0340186
127 1 0.574051 0.0508651 0.0254297 0.231278 -3.32595 0.0179155 -0.0307327 -0.0990081
132 1 0.599131 0.0775864 0.0250856 0.806475 -3.23921 0.209368 -0.43794 -0.254955
126 1 0.57549 0.07443 0.00120763 1.10243 -3.31157 -0.12851 0.383423 -0.255668
207 1 0.575489 0.102101 0.0239875 0.659352 -3.2776 -0.434941 -0.295675 -0.266492
1729 1 0.601 0.0506608 0.0490326 1.0486 -3.29781 -0.555589 0.110626 -0.0625811
136 1 0.648891 0.0747785 0.0244434 0.571763 -3.33153 0.191602 0.456389 -0.334378
1730 1 0.624088 0.0769854 0.0486369 0.74587 -3.29299 0.101767 -0.436932 0.183301
1733 1 0.649167 0.048923 0.0475651 0.898997 -3.28672 -0.139653 0.497605 0.219898
135 1 0.674328 0.0506748 0.0238597 0.235346 -3.31334 0.174509 0.128039 -0.00737499
140 1 0.700586 0.0771729 0.0241933 0.654339 -3.33904 0.0293867 -0.693994 0.200681
134 1 0.67673 0.0769059 -0.000631882 1.07983 -3.32773 -0.768681 -0.327459 0.210343
137 1 0.700503 0.0501906 0.000827744 0.463688 -3.34079 -0.0480656 0.340228 -0.210828
143 1 0.774216 0.0504161 0.0266341 0.536851 -3.29225 -0.451781 -0.176328 -0.146821
139 1 0.726592 0.0502736 0.0241836 0.898758 -3.30366 -0.612717 0.00388887 0.541229
1741 1 0.749137 0.0513617 0.0522791 1.43901 -3.27416 0.242331 -0.291559 -0.460205
144 1 0.748069 0.0753952 0.0258167 0.810465 -3.32153 0.644963 0.100502 -0.329963
142 1 0.775853 0.0757378 0.00101119 0.316673 -3.37203 -0.170218 0.00690288 -0.251047
138 1 0.725298 0.0759111 -0.001651 0.700518 -3.30169 -0.208988 -0.138984 0.292503
219 1 0.72568 0.100375 0.0262338 0.605353 -3.29081 -0.0348031 0.187087 -0.107907
223 1 0.775369 0.100014 0.0255894 0.268323 -3.33844 -0.012574 -0.141435 -0.274707
1821 1 0.750903 0.100632 0.0508535 0.555509 -3.33876 -0.174974 -0.0132296 -0.0580162
148 1 0.80013 0.0732227 0.0264901 1.10649 -3.27995 0.356939 0.574031 -0.503897
152 1 0.850361 0.0752691 0.0223799 1.46018 -3.3056 0.444969 0.377448 0.875267
1750 1 0.874773 0.0748642 0.0515359 0.884847 -3.36379 -0.0641406 -0.0748453 -0.365925
231 1 0.876669 0.0998832 0.0261959 0.702698 -3.30318 -0.397829 0.203016 -0.212796
1749 1 0.84908 0.0501037 0.0503392 0.481939 -3.28768 0.74688 0.122909 -0.117206
155 1 0.926282 0.0500113 0.0263267 0.649705 -3.31067 -0.619008 0.0414928 -0.320586
156 1 0.898301 0.07502 0.0243353 1.0769 -3.29964 0.799212 -0.011023 0.530557
1754 1 0.927357 0.0744398 0.0516861 1.06434 -3.28693 -1.00328 -0.213231 -0.512168
154 1 0.924436 0.075335 -0.00110928 0.544958 -3.33115 0.399666 0.0425572 0.238411
159 1 0.975794 0.0503495 0.026686 0.509275 -3.32398 0.0641993 0.0271011 -0.506649
81 1 1.00204 0.0494862 2.61934e-05 0.596604 -3.33052 -0.384069 0.354507 0.345325
161 1 1.00158 0.0997297 0.000117132 0.282691 -3.34689 -0.295133 0.267461 0.296776
160 1 0.949528 0.0737082 0.0256223 0.616198 -3.30663 0.582615 0.38752 -0.107303
158 1 0.974243 0.0744187 0.000147289 0.674226 -3.30854 0.564671 -0.154833 0.433849
239 1 0.975109 0.100994 0.0248319 0.509472 -3.35588 0.359075 -0.475849 0.254656
1758 1 0.977072 0.07648 0.051795 0.93974 -3.23976 -0.825594 0.192606 -0.535178
1761 1 0.000337043 0.100034 0.0525513 1.0214 -3.25538 0.275743 0.121062 -0.887524
163 1 0.0271358 0.101021 0.0262629 0.607021 -3.35192 -0.427832 0.0536615 -0.239958
168 1 0.0526922 0.125633 0.023959 1.20093 -3.31107 -0.363908 -0.292355 0.376789
1762 1 0.0247096 0.124828 0.0502532 0.501127 -3.3384 0.0293433 0.294098 -0.289914
243 1 0.0263559 0.149701 0.0250706 0.465314 -3.29345 -0.481823 0.0711425 0.232855
245 1 0.0498375 0.15063 0.000961741 0.590176 -3.26791 0.308797 -0.0523733 -0.342355
167 1 0.0732918 0.0982512 0.0245397 1.69589 -3.28859 0.509716 0.642106 -0.00855653
172 1 0.100406 0.124025 0.0261058 0.54711 -3.34934 -0.361506 0.299879 -0.100121
1766 1 0.0748758 0.125305 0.0518462 1.06338 -3.26974 0.642997 -0.0517192 -0.472179
1769 1 0.100616 0.0997605 0.0483059 0.653439 -3.34977 -0.305591 -0.0107915 0.607873
249 1 0.0981453 0.148533 0.000128527 0.52433 -3.23075 0.442254 0.564842 -0.0175817
171 1 0.125832 0.0995473 0.0252507 0.210368 -3.29575 0.233131 -0.0408227 -0.294946
176 1 0.150795 0.123109 0.0259532 0.843418 -3.31869 -0.27218 0.357117 -0.473577
251 1 0.12385 0.151572 0.0267567 1.45566 -3.30887 -0.0959107 -0.619331 -0.532916
1773 1 0.150816 0.0987262 0.0498346 0.170369 -3.30902 0.152572 0.0512731 -0.0200967
170 1 0.12382 0.125395 0.00055436 0.703952 -3.33756 0.46196 -0.218187 0.0854587
253 1 0.149608 0.148781 0.00122584 0.593561 -3.32638 -0.385995 -0.107658 -0.455154
180 1 0.199165 0.123518 0.0273037 1.21183 -3.25943 0.338844 0.432139 -0.353158
1774 1 0.174457 0.123973 0.0517082 0.653898 -3.24517 -0.0517993 0.172211 -0.0676465
257 1 0.19903 0.149052 -0.000832131 0.752939 -3.34991 0.0998523 0.247831 0.44701
255 1 0.173295 0.148996 0.0234324 1.11115 -3.24327 1.33282 0.0115576 0.233331
174 1 0.17663 0.122966 0.000422618 0.821639 -3.31302 -0.268159 0.322477 0.135971
184 1 0.249599 0.123351 0.0241457 0.456588 -3.27693 0.0337123 0.128561 0.207907
259 1 0.221816 0.149841 0.0259392 1.38969 -3.32358 0.471682 -0.0256003 -0.347148
1778 1 0.226106 0.124607 0.0507472 0.422167 -3.29171 -0.448566 -0.677885 -0.126211
261 1 0.247621 0.148585 -0.000856289 1.16455 -3.33864 0.287576 0.0780322 0.696936
182 1 0.276969 0.121901 -0.000905248 1.93382 -3.26468 -0.344514 0.489448 0.613977
178 1 0.22431 0.122996 0.00139029 0.760554 -3.30116 -0.350142 0.408987 -0.271449
188 1 0.300011 0.124137 0.026307 0.556523 -3.31926 0.226753 0.000451779 -0.439435
1865 1 0.301403 0.151127 0.051635 1.60802 -3.30268 -0.284 -0.0953855 -0.564996
186 1 0.324968 0.124097 -0.000999536 0.735807 -3.37202 -0.0858624 0.25152 0.505107
192 1 0.348569 0.123843 0.0261774 0.654265 -3.26918 -0.128606 0.431364 -0.302602
271 1 0.37298 0.150572 0.027083 0.892492 -3.22184 0.305939 -0.105343 -0.86814
195 1 0.423131 0.101128 0.0235526 0.929262 -3.24635 0.0638197 -0.615099 0.475635
196 1 0.397539 0.127038 0.0255443 0.994299 -3.24631 0.489229 -0.294227 -0.348124
194 1 0.426033 0.124617 -0.000906524 0.770149 -3.29708 -0.239585 -0.18351 0.131251
199 1 0.475628 0.0984231 0.0245242 0.483042 -3.32465 -0.116151 -0.00548462 -0.320342
200 1 0.447506 0.12316 0.0256503 1.25895 -3.26159 0.768179 0.625125 -0.247936
279 1 0.471942 0.151549 0.0245683 0.833794 -3.32593 0.48792 -0.445866 0.11951
204 1 0.500187 0.125487 0.0242556 0.445995 -3.25033 -0.601873 0.169337 -0.237364
1798 1 0.474553 0.125961 0.0494959 0.492049 -3.35208 -0.231459 0.099088 -0.12211
1805 1 0.548915 0.101906 0.0487074 0.325451 -3.31929 0.35067 -0.315239 0.205722
203 1 0.524967 0.10167 0.0244355 0.55223 -3.2877 -0.0797671 -0.648382 -0.37886
1802 1 0.524046 0.124872 0.0468303 0.955723 -3.25671 0.264512 0.618784 0.91113
208 1 0.550441 0.124695 0.0231208 0.636881 -3.22644 0.260643 0.343553 0.151693
201 1 0.50044 0.0996641 -0.00160557 0.654001 -3.38548 -0.137522 0.0459633 0.236452
212 1 0.601265 0.124862 0.0244367 0.999967 -3.27536 -0.520518 0.692509 -0.170389
287 1 0.573966 0.152319 0.0248118 0.991804 -3.26899 0.345922 -0.860114 -0.138564
1809 1 0.598848 0.0996654 0.0483012 0.732759 -3.25205 0.0937955 0.508198 0.500608
211 1 0.62663 0.102659 0.0256282 1.26602 -3.25913 -0.103688 -0.618495 -0.232271
1813 1 0.650645 0.0999631 0.0501652 0.810733 -3.27487 -0.193641 0.233979 0.0875384
1810 1 0.624391 0.127253 0.0487836 0.874807 -3.31811 0.26243 -0.34365 0.562528
216 1 0.649395 0.127355 0.0246685 0.491723 -3.28596 0.476493 0.0859724 -0.0988224
210 1 0.626166 0.127331 -0.00175903 1.0611 -3.26386 -0.420932 -0.178234 0.145981
215 1 0.673236 0.100778 0.0245897 0.768786 -3.29294 0.171124 -0.0486088 -0.115803
220 1 0.699573 0.124595 0.022976 0.810093 -3.31551 0.197179 0.230219 0.665335
224 1 0.749622 0.124213 0.0259616 0.44353 -3.30393 0.0979912 0.152638 -0.18441
222 1 0.773826 0.123024 0.000938262 1.31252 -3.30149 0.307674 0.682814 0.116921
1818 1 0.724456 0.127155 0.0499434 0.652304 -3.32248 -0.165248 -0.509295 -0.311062
1822 1 0.77642 0.124678 0.0490907 0.773922 -3.31998 -0.381486 0.110433 0.214829
1901 1 0.749547 0.150378 0.048052 0.496137 -3.32852 0.191654 0.249879 0.441537
227 1 0.823803 0.101023 0.0264606 1.19499 -3.32456 0.227031 -0.399071 -0.261521
1825 1 0.798627 0.0988052 0.0502443 0.71368 -3.27777 0.389349 0.116566 0.230522
228 1 0.801577 0.12632 0.0244742 1.28897 -3.22523 -0.716197 -0.361864 -0.52815
1829 1 0.850125 0.10009 0.0490717 0.474357 -3.35112 -0.10518 0.115903 0.091983
232 1 0.849837 0.125426 0.0252519 0.46344 -3.30277 0.383871 -0.269583 0.428308
311 1 0.874854 0.15135 0.0257468 0.53747 -3.33305 0.410223 -0.4739 0.120013
1830 1 0.876253 0.125004 0.0502038 0.251209 -3.34194 -0.0265667 0.275694 -0.150251
309 1 0.853195 0.151174 -0.000908807 1.45976 -3.33738 -0.247756 0.0363615 0.390668
235 1 0.925645 0.0981471 0.0250608 0.67773 -3.27428 -0.540625 -0.00272906 -0.0935092
236 1 0.902104 0.125865 0.0255519 0.540009 -3.34631 -0.228482 -0.0453783 0.0080854
315 1 0.926548 0.151362 0.0258943 0.700812 -3.31603 0.124479 -0.58471 -0.37531
237 1 0.952321 0.0993819 -0.000619832 0.786544 -3.32993 -0.743834 0.145416 -0.184168
164 1 1.00069 0.125953 0.0238532 0.81828 -3.34377 0.0389869 -0.497947 0.420073
240 1 0.948503 0.12223 0.0245379 1.5849 -3.31479 0.0752283 0.901494 -0.020792
1838 1 0.975183 0.124125 0.0503289 0.407683 -3.30701 -0.218671 -0.198331 -0.211699
248 1 0.0503184 0.176333 0.0244128 0.603622 -3.34383 0.0172921 -0.110971 0.27266
244 1 -0.0014 0.175502 0.0266366 0.47436 -3.35584 0.238528 -0.179056 -0.165079
323 1 0.0235683 0.202186 0.0255703 1.21062 -3.31617 -0.0728312 -0.654044 0.509807
1841 1 -0.0026386 0.148948 0.0502404 1.35592 -3.31737 0.662945 0.367299 -0.092018
247 1 0.0760064 0.150838 0.0242052 0.563839 -3.27926 -0.00615172 -0.139744 0.414803
252 1 0.0982025 0.176072 0.026566 1.03561 -3.34732 0.360686 -0.0451926 -0.080507
246 1 0.0739107 0.17505 -0.000868642 0.587371 -3.32305 0.16277 -0.0607427 0.138642
327 1 0.0743014 0.201146 0.024505 0.921125 -3.29944 -0.172734 -0.202176 0.597044
329 1 0.100171 0.199063 0.00272228 1.01369 -3.31362 0.0133818 -0.0622202 -0.395271
256 1 0.150204 0.173598 0.0255428 0.485569 -3.20878 -0.0304208 0.452118 -0.599156
250 1 0.123933 0.17357 0.0015347 0.479288 -3.29396 -0.340079 -0.118426 0.0508744
260 1 0.199616 0.175883 0.024232 0.522965 -3.3173 0.166351 -0.537566 0.126932
337 1 0.198604 0.20029 0.000533335 0.313107 -3.29039 0.409457 -0.0102745 -0.173108
1937 1 0.200355 0.199784 0.0493822 0.712194 -3.33813 -0.224772 0.0936442 0.472048
254 1 0.175024 0.175895 -0.000482444 1.00889 -3.29067 -0.288173 -0.462758 0.206032
263 1 0.272569 0.147196 0.0252973 1.46167 -3.30203 0.21518 0.59097 -0.0427379
1861 1 0.247335 0.148616 0.0508894 1.06138 -3.25407 0.466839 0.601676 -0.189382
264 1 0.248937 0.173502 0.0289116 2.99029 -3.33627 -0.246902 0.302224 -0.777248
258 1 0.22689 0.176211 2.31338e-06 2.12318 -3.29084 -0.581774 -0.573631 0.63169
339 1 0.22397 0.20192 0.0243451 1.22297 -3.31087 0.225192 -0.49125 0.128758
1862 1 0.274348 0.1741 0.0505452 0.680346 -3.2697 0.112082 0.096392 -0.170808
267 1 0.325606 0.148331 0.0237731 1.33365 -3.35804 -0.215696 0.391494 0.131222
268 1 0.297274 0.172521 0.0240416 2.27243 -3.32724 0.15106 0.578787 0.419277
347 1 0.325553 0.201777 0.0248395 1.39622 -3.26711 -0.218578 -0.737193 0.249093
266 1 0.323326 0.174746 0.000806435 0.796142 -3.32232 -0.0101444 -0.382582 -0.0475469
1866 1 0.325308 0.176092 0.0477745 1.35768 -3.34222 -0.144294 -0.122274 0.155353
272 1 0.350813 0.174068 0.0249828 1.06821 -3.25397 -0.626884 0.403218 -0.0188596
1870 1 0.372597 0.175583 0.0541783 3.21433 -3.22562 0.530568 0.161954 -1.05788
275 1 0.424197 0.149806 0.0238968 0.290549 -3.28603 -0.301919 0.115599 0.0687263
276 1 0.398417 0.177067 0.0253549 0.964872 -3.2784 0.0729484 -0.75113 -0.152687
355 1 0.424719 0.200546 0.0257858 0.521273 -3.3216 0.126655 0.177771 -0.206457
280 1 0.448023 0.174712 0.0231698 0.535408 -3.30004 0.27085 0.502745 0.458511
278 1 0.473435 0.175559 -0.00219467 1.0304 -3.31821 0.084089 0.00493296 0.572753
359 1 0.473724 0.201746 0.0247004 0.413147 -3.30361 -0.29183 -0.389093 -0.283211
1881 1 0.500063 0.151139 0.0479974 0.400693 -3.34816 -0.377466 -0.0635827 -0.162929
1878 1 0.473331 0.176708 0.0485474 0.427432 -3.35264 -0.0810652 -0.541339 0.0626517
357 1 0.4484 0.20133 -0.000603178 0.534797 -3.28801 -0.0240878 -0.585105 0.103866
283 1 0.52722 0.149695 0.0240848 1.17201 -3.31458 -0.428021 0.547717 0.0160178
284 1 0.499159 0.176665 0.0234641 0.479704 -3.34802 -0.0990643 -0.346131 0.163289
288 1 0.550505 0.175935 0.0245617 0.26385 -3.31865 -0.206686 0.248855 -0.154433
363 1 0.52512 0.201143 0.0261472 0.848759 -3.28429 -0.198592 -0.139704 -0.175177
1882 1 0.52341 0.176211 0.0483523 0.40916 -3.34393 0.246197 -0.0297091 0.142565
282 1 0.524435 0.17513 -0.000901167 0.564279 -3.31383 0.237596 -0.184212 0.380769
1889 1 0.599869 0.150289 0.0533534 2.92342 -3.23568 -0.147691 0.364174 -1.2209
1886 1 0.576547 0.17565 0.0505092 0.480273 -3.30366 -0.0603147 -0.267282 -0.123073
292 1 0.599782 0.17369 0.0252197 1.40338 -3.31636 0.269115 0.773904 -0.19899
369 1 0.601408 0.203054 -0.000972231 1.43008 -3.27979 -0.454245 -1.06653 -0.0606608
291 1 0.624469 0.150454 0.0241934 0.380138 -3.2888 0.0701772 0.207387 -0.0355596
1893 1 0.650276 0.150488 0.0497071 0.368581 -3.3661 0.276104 -0.00296789 -0.0290027
371 1 0.624345 0.200819 0.0249081 0.356414 -3.34696 -0.204473 -0.0796131 -0.00894598
296 1 0.649987 0.175238 0.0236916 0.329405 -3.31627 -0.219071 0.0345118 0.205684
290 1 0.625978 0.176232 -0.00324824 1.62468 -3.26816 -0.903212 -0.0310718 0.964048
297 1 0.702225 0.149684 -0.00201234 1.30109 -3.26496 -0.478124 0.229694 0.104481
295 1 0.676607 0.151063 0.0240922 0.553399 -3.29601 -0.601122 -0.450345 -0.22272
300 1 0.699884 0.17486 0.0253002 0.383476 -3.22907 0.704185 0.16932 -0.0671523
1897 1 0.698822 0.149897 0.0485021 0.448358 -3.32231 0.324088 0.081539 0.325229
299 1 0.725505 0.150166 0.0240923 0.382524 -3.32955 -0.304477 0.0772285 0.284461
303 1 0.774024 0.149581 0.0240924 0.454051 -3.32409 0.176594 -0.0102345 0.0731936
304 1 0.751761 0.175238 0.0239631 0.623202 -3.32151 -0.366953 0.187369 0.0588392
1902 1 0.775097 0.17673 0.048877 0.631443 -3.3045 0.448538 -0.625814 0.256579
379 1 0.725749 0.200282 0.0253989 0.361412 -3.34327 -0.512822 0.0105761 -0.145388
383 1 0.77785 0.201422 0.0244507 1.25429 -3.28195 -0.760327 -0.650103 -0.0301626
1898 1 0.725371 0.177247 0.0501828 0.905979 -3.32059 -0.389565 -0.576468 -0.510387
307 1 0.826683 0.149174 0.0259996 0.712072 -3.27672 -0.0779773 0.687873 -0.453014
308 1 0.801307 0.173755 0.02594 0.871251 -3.33858 -0.414969 0.263848 -0.510662
1905 1 0.799034 0.149585 0.0501573 0.652059 -3.27903 -0.107532 0.82072 0.0235544
387 1 0.826642 0.201421 0.0255246 0.471335 -3.34512 -0.265718 -0.309431 0.0367898
312 1 0.850436 0.174988 0.026547 0.363127 -3.27847 -0.32778 0.0573769 -0.281002
1989 1 0.8501 0.199673 0.0513562 0.438868 -3.26779 0.158306 0.00342034 -0.412757
1910 1 0.875112 0.176116 0.0489737 0.77978 -3.2929 0.392713 -0.328705 0.483707
310 1 0.877617 0.176108 0.00300565 0.819538 -3.27376 -0.135703 -0.151644 -0.379072
316 1 0.902922 0.175736 0.0264108 0.771484 -3.29379 -0.477858 -0.00949545 -0.0045034
314 1 0.925318 0.174031 0.000554543 0.902211 -3.2765 0.282275 0.250325 -0.0914437
319 1 0.974137 0.148124 0.0248539 0.778406 -3.32246 -0.289119 0.402295 -0.00422866
320 1 0.949085 0.176935 0.0241023 1.3861 -3.2241 0.247587 -0.498069 0.600846
399 1 0.974808 0.201237 0.0269361 0.428895 -3.32796 0.534424 0.0772638 -0.100442
325 1 0.0484495 0.200515 0.00163219 0.549885 -3.27323 0.0940201 -0.0933858 -0.160274
328 1 0.048797 0.225586 0.0259822 0.408775 -3.31657 0.496889 -0.0113189 0.238458
403 1 0.0248879 0.2499 0.0266081 0.226094 -3.19848 0.280893 0.192059 -0.134735
2005 1 0.051101 0.248215 0.0520149 1.09954 -3.36444 0.138053 0.210658 -0.268698
321 1 0.000111701 0.199003 0.000342515 1.05462 -3.27296 -0.133387 0.328244 0.292371
332 1 0.0998446 0.224655 0.0263218 0.331821 -3.27074 0.154215 0.111683 -0.3552
407 1 0.0760982 0.251542 0.0240049 1.6331 -3.32258 -0.181476 -0.338881 0.547611
326 1 0.0751349 0.224648 0.000926709 0.357231 -3.30265 0.178743 0.17745 0.258449
331 1 0.126004 0.200225 0.0272227 0.893752 -3.26484 -0.648475 -0.411535 -0.266339
336 1 0.14818 0.225713 0.0251252 0.549275 -3.29892 0.264799 -0.322814 -0.0879014
411 1 0.124848 0.249972 0.0255989 0.318897 -3.31842 -0.118436 -0.0252769 -0.306675
330 1 0.1235 0.223293 0.000177841 0.695187 -3.2895 0.371725 0.416404 0.220509
413 1 0.149864 0.251054 -0.00102461 1.36891 -3.28651 -0.639433 -0.620517 0.524103
335 1 0.174743 0.198209 0.0251358 0.874874 -3.29849 -0.482871 0.578519 0.1547
340 1 0.197994 0.22499 0.0268244 1.01835 -3.30779 0.37051 -0.0738364 -0.450609
415 1 0.172656 0.249199 0.0250491 0.507026 -3.31574 0.429021 0.323503 -0.143876
334 1 0.173842 0.223418 0.00209285 0.746764 -3.3049 -0.12458 -0.0290151 -0.0953289
417 1 0.19941 0.248024 0.00167343 0.759726 -3.29602 -0.0463826 0.446452 -0.119822
343 1 0.274141 0.201032 0.0250237 0.431031 -3.30019 0.0732485 -0.853763 -0.439542
344 1 0.250951 0.225578 0.0249959 0.396217 -3.32095 -0.278651 0.255696 -0.244241
419 1 0.224788 0.250581 0.0232678 0.883183 -3.31856 -0.0149439 -0.354977 0.681045
1938 1 0.225941 0.224287 0.0494643 0.713639 -3.2476 -0.64658 0.666207 -0.299523
2021 1 0.249705 0.251022 0.0497301 0.372797 -3.37979 0.104059 -0.22987 -0.324593
1942 1 0.276185 0.223637 0.0483067 1.69898 -3.26988 -0.234552 0.982471 0.319502
338 1 0.225187 0.224561 -2.41463e-05 0.320469 -3.31497 -0.258024 0.286685 0.125094
1941 1 0.248824 0.201407 0.0491527 0.698325 -3.28153 0.260398 -0.702368 0.0617892
348 1 0.298566 0.224634 0.0228299 1.19059 -3.24803 0.569291 0.35994 0.726471
427 1 0.327173 0.249487 0.0232472 1.50195 -3.29308 -0.795073 -0.0832627 0.585502
1945 1 0.29807 0.199057 0.0499734 1.07217 -3.25157 0.359209 0.0335471 -0.425935
2025 1 0.300574 0.251841 0.0497581 0.840781 -3.36802 0.0581174 -0.719686 -0.158465
351 1 0.372883 0.198973 0.0248776 0.864135 -3.27956 -0.180947 0.572767 -0.141912
352 1 0.350267 0.224784 0.024768 0.552911 -3.30972 0.339288 0.141377 -0.412693
350 1 0.375217 0.225268 -0.00102834 0.374296 -3.29177 -0.365669 -0.327299 0.432586
356 1 0.397512 0.225178 0.0245565 0.805292 -3.34031 0.499545 -0.109985 -0.109068
435 1 0.424013 0.250439 0.02476 0.267762 -3.27346 0.011769 -0.421111 -0.145773
433 1 0.401064 0.249262 -0.00142908 1.21226 -3.30537 -0.284186 0.0145535 0.135382
1954 1 0.423472 0.225183 0.0505331 0.37393 -3.34359 0.114354 0.0128887 -0.277621
1957 1 0.448543 0.199806 0.0512786 0.531517 -3.30646 -0.335477 0.0519887 -0.437473
360 1 0.44917 0.225772 0.0251069 0.23548 -3.2653 -0.415974 -0.208678 0.0381551
1958 1 0.471976 0.22569 0.0498724 0.561274 -3.31793 0.308745 0.0821815 0.358556
358 1 0.473818 0.223653 0.000189314 0.921301 -3.28563 0.254693 0.452914 -0.296009
364 1 0.499549 0.22769 0.0251025 1.14288 -3.28504 0.720855 -0.811496 -0.111532
361 1 0.501358 0.200726 0.00130613 1.214 -3.32648 -0.374156 0.201804 -0.34137
1965 1 0.551358 0.198644 0.049517 1.04111 -3.27365 -0.454694 0.485345 -0.265784
1962 1 0.524471 0.225668 0.050532 0.44249 -3.32582 -0.0569566 -0.136386 -0.254909
368 1 0.549349 0.22389 0.0245044 0.808587 -3.35541 0.388748 0.670334 0.103978
367 1 0.576228 0.201527 0.0246326 0.590836 -3.3246 -0.0721937 -0.525971 -0.075359
372 1 0.59923 0.225276 0.0239134 0.462592 -3.30629 0.337624 0.361195 0.209366
447 1 0.574181 0.250309 0.0242742 0.41257 -3.33935 0.133858 -0.187205 -0.0569305
366 1 0.574169 0.225102 -0.00300584 1.33034 -3.29023 -0.161923 0.0621879 0.642572
1969 1 0.599722 0.200888 0.0518361 1.04508 -3.26794 0.494133 -0.254978 -0.58406
1966 1 0.577427 0.225139 0.0500836 0.9908 -3.29943 -0.24328 0.417834 -0.149063
1970 1 0.624436 0.226267 0.0514112 0.874456 -3.34137 0.162509 -0.211795 -0.246558
376 1 0.648985 0.227432 0.0240043 0.749147 -3.32299 -0.247939 -0.67827 -0.0372795
451 1 0.62311 0.252207 0.0220641 1.78801 -3.31186 0.58609 -0.400292 0.0707334
2053 1 0.648273 0.251328 0.0475212 1.08897 -3.26826 -0.214491 -0.0387121 0.417815
370 1 0.624755 0.225372 -0.0010267 0.324524 -3.27542 0.591263 0.557661 0.0882002
375 1 0.676713 0.199503 0.0257267 1.25933 -3.29687 -0.599178 0.600406 -0.329113