ITEM: TIMESTEP
13750
ITEM: NUMBER OF ATOMS
32000
ITEM: BOX BOUNDS pp pp pp
5.4478754135106868e+00 7.5552124586489356e+01
-2.6447375642946724e+00 8.3644737564294672e+01
-4.1859097832720948e+00 8.5185909783271143e+01
ITEM: ATOMS id type xs ys zs c_csym c_peratom fx fy fz
4 1 0.0169996 0.0406093 0.0276992 7.94741 -3.34252 0.278786 -0.131062 -0.219976
3 1 0.0301756 0.00792337 0.0227369 0.805489 -3.30104 0.277017 -0.0821473 -0.17421
8 1 0.0556577 0.0331557 0.0226776 1.20127 -3.27657 0.409427 -0.0902319 0.158649
1605 1 0.0542614 0.0107193 0.047035 1.47062 -3.27582 0.0568633 -0.677611 -0.0383118
12 1 0.095217 0.0249675 0.018247 1.5743 -3.30528 0.173941 0.303929 -0.122842
7 1 0.0723913 0.997863 0.0158064 5.76753 -3.21746 -0.988336 0.567805 -0.100797
1609 1 0.093903 0.00338057 0.040249 3.09488 -3.2649 0.222245 -0.482122 0.819872
1606 1 0.0809031 0.0326089 0.0499429 1.80428 -3.24812 0.434472 0.135628 -0.20601
1610 1 0.120161 0.0279625 0.0445329 1.00823 -3.30093 0.285 -0.293533 0.201699
16 1 0.136057 0.0205913 0.0160813 1.35803 -3.25545 -0.62586 -0.0909056 -0.215974
1614 1 0.159728 0.0199606 0.0408461 0.693937 -3.26936 -0.153313 -0.116154 0.394646
95 1 0.163158 0.0454673 0.016033 0.936837 -3.26018 -0.020251 -0.036305 0.128047
20 1 0.170832 0.0100465 0.013088 7.27744 -3.27088 0.637794 -0.211901 -0.367443
99 1 0.201834 0.0357651 0.0122046 6.84466 -3.29764 0.245683 -0.1792 -0.20793
24 1 0.23081 0.00951684 0.0120604 1.20273 -3.22962 -0.551707 0.150024 0.716562
1618 1 0.198266 0.0132682 0.034783 8.51855 -3.31777 0.484757 -1.01942 0.00905197
1701 1 0.23017 0.0326633 0.0343939 9.10956 -3.33683 -0.264351 0.417713 0.249766
1697 1 0.187358 0.0416701 0.0398861 1.63503 -3.20182 0.238596 0.781817 0.547725
103 1 0.259466 0.0327054 0.0120405 7.67511 -3.20957 -0.343217 0.338162 0.56181
28 1 0.286882 0.0102181 0.014351 7.71593 -3.25944 -0.126657 -0.0150447 0.218509
1622 1 0.259264 0.0119221 0.0378746 1.33891 -3.27434 -0.485435 -0.137932 -0.172606
1705 1 0.285375 0.0355782 0.0359538 7.09185 -3.19564 -0.555676 -0.182449 0.137138
107 1 0.295445 0.0407903 0.00280645 7.90843 -3.29477 0.678372 -0.00517508 -0.0891867
32 1 0.324154 0.0156789 0.00635705 7.94592 -3.27149 0.011601 0.6148 -0.669177
1626 1 0.310967 0.0101986 0.0381343 7.53142 -3.28505 0.637428 0.407635 0.137303
1709 1 0.320245 0.0402885 0.0269316 7.16642 -3.26209 0.935502 -0.276267 -0.366421
111 1 0.351614 0.0397972 0.0037599 0.548576 -3.36331 -0.316819 0.0397941 -0.0230809
1630 1 0.352264 0.016377 0.0285994 6.37071 -3.33717 0.0487919 0.476685 -0.241759
36 1 0.382774 0.016867 0.00497268 1.30096 -3.30741 -0.542368 0.241166 0.108666
1713 1 0.379098 0.0430293 0.0270257 0.67836 -3.29928 -0.0254823 -0.660031 -0.0876325
115 1 0.407046 0.0437877 0.00354388 0.992708 -3.23081 0.205872 -0.263577 0.603406
1634 1 0.405769 0.0184779 0.0295345 0.541556 -3.28664 -0.220337 -0.150661 -0.0183776
40 1 0.434405 0.0206611 0.00684866 0.45515 -3.37427 -0.00529956 -0.0305792 -0.277131
1717 1 0.42924 0.0431207 0.0296817 2.61755 -3.26468 0.76326 0.51564 -0.67194
119 1 0.462315 0.0480517 0.00553881 0.796936 -3.33451 0.0290391 -0.519681 0.187418
1638 1 0.460815 0.0235751 0.0300266 0.74338 -3.30194 0.13044 0.056814 -0.528446
44 1 0.493757 0.0243263 0.0082172 1.28876 -3.3117 -0.376618 0.272124 -0.132286
1642 1 0.522084 0.0291602 0.0292789 7.30153 -3.20908 -0.620803 -0.457453 0.559516
123 1 0.519648 0.0514615 0.00766235 0.538993 -3.28508 0.182456 -0.42602 -0.417142
1721 1 0.488672 0.0483068 0.028535 0.490628 -3.34915 0.0500827 0.0244382 0.125388
48 1 0.54871 0.027804 0.00843646 5.40869 -3.28267 0.151486 0.315046 -0.450697
52 1 0.592338 0.0263926 0.0194434 7.87746 -3.24594 0.744032 0.554182 -0.334921
49 1 0.59901 0.00160309 0.991877 6.85953 -3.17366 0.178682 0.0850298 1.29338
127 1 0.574667 0.0548867 0.0103967 6.71868 -3.31192 -0.235921 -0.0976514 0.104042
1725 1 0.546697 0.0520649 0.0319641 7.47115 -3.29996 0.0331207 0.443896 0.0318458
51 1 0.625712 0.00249757 0.0195412 0.749133 -3.32104 -0.586556 0.310911 -0.4235
56 1 0.653165 0.0278667 0.0193151 1.05517 -3.22982 -0.564048 0.166183 0.319778
131 1 0.620583 0.0518409 0.0166519 7.07541 -3.26674 -0.12163 -0.546045 0.878369
50 1 0.627773 0.0268532 0.996078 6.69186 -3.28699 -0.658347 0.360629 0.317756
53 1 0.656117 0.00401398 0.996609 0.548168 -3.29197 0.341636 0.165921 0.236576
60 1 0.706808 0.030278 0.0217785 1.30885 -3.32286 0.313798 0.490333 0.571649
55 1 0.681471 0.00467372 0.0219665 0.699341 -3.30456 -0.254398 0.10745 -0.0411817
54 1 0.681312 0.031345 0.999642 0.71903 -3.25992 0.372488 -0.145362 -0.14605
57 1 0.711119 0.00751014 0.0014217 0.919567 -3.31626 0.119733 -0.10859 -0.450247
64 1 0.763057 0.0348923 0.023438 1.68788 -3.31088 -0.0823611 0.0979715 0.78964
58 1 0.738349 0.0354326 0.000323622 1.4653 -3.25846 -0.0105792 -0.626694 0.200152
59 1 0.739824 0.00857508 0.0231628 2.46163 -3.2548 -0.959438 0.196766 1.01323
61 1 0.765054 0.0087598 0.00349171 1.64658 -3.17989 1.06369 0.0118549 -0.232386
63 1 0.791414 0.0131217 0.0263406 2.90301 -3.27713 -0.137866 -0.691487 0.573967
68 1 0.820506 0.0356192 0.0303816 0.472464 -3.33586 0.28588 0.190094 0.533101
65 1 0.824261 0.0130246 0.00981666 0.857224 -3.27006 0.338644 -0.427691 -0.147583
62 1 0.796152 0.0352815 0.00539169 0.51663 -3.22313 -0.138023 -0.100681 -0.127093
72 1 0.876408 0.0369993 0.0359324 1.23226 -3.27802 0.245451 -0.141653 -0.248425
66 1 0.852438 0.0354115 0.00948338 0.812723 -3.33397 0.0666595 0.347616 0.525021
67 1 0.852869 0.0116716 0.0342597 6.76127 -3.2878 -0.406944 0.0503365 -0.187051
69 1 0.881264 0.0122291 0.0129456 1.49988 -3.25389 -0.149056 0.262012 0.804186
70 1 0.910475 0.0371792 0.0180073 1.45227 -3.31694 -0.509127 0.0780896 -0.528622
76 1 0.930468 0.0367084 0.0433057 0.782658 -3.28228 0.51636 0.181725 0.223858
73 1 0.934125 0.0120952 0.0214789 0.812686 -3.3027 0.360018 -0.107429 0.105241
71 1 0.901468 0.012859 0.0411185 1.23003 -3.3172 -0.0484905 -0.600595 -0.360165
78 1 0.991331 0.0397456 0.00111177 6.74929 -3.31061 0.428253 0.212362 0.0601817
75 1 0.960664 0.0125428 0.0444653 1.3779 -3.31834 -0.265497 -0.00070227 0.235997
74 1 0.961596 0.0394608 0.022253 0.666137 -3.26822 -0.362478 -0.378512 -0.107013
80 1 0.985221 0.0381026 0.0458964 1.17174 -3.24542 0.24697 0.20586 0.462139
79 1 0.991632 0.0149175 0.0243735 7.46336 -3.30338 -0.218251 -0.058724 0.243156
77 1 0.966725 0.0153755 0.999374 7.93133 -3.30068 -0.0592325 -0.168811 0.0237134
83 1 0.0454728 0.0655914 0.0283092 7.90228 -3.28505 -0.280124 -0.290513 -0.38196
81 1 0.0216636 0.0641245 0.00304019 7.16041 -3.28698 -0.180632 0.121414 0.187851
84 1 0.0409574 0.0878975 0.0492043 1.0664 -3.31282 0.0508099 0.502733 0.1771
82 1 0.0457573 0.091386 0.00292994 7.25504 -3.29964 0.12291 0.565143 0.356415
158 1 0.0142207 0.0885916 0.0244925 0.957895 -3.33662 0.307871 0.144852 0.469914
88 1 0.0710228 0.0904888 0.0273921 7.14362 -3.29116 0.326302 -0.16097 0.0690374
87 1 0.0839945 0.056759 0.023125 1.49019 -3.31415 0.393295 0.0559931 -0.201832
92 1 0.114707 0.0831308 0.0238569 1.74659 -3.32444 -0.616157 0.0788358 0.200416
86 1 0.0872402 0.085541 0.999705 0.959427 -3.30746 0.326744 0.0918225 -0.00881915
91 1 0.123614 0.0508961 0.0227956 2.22622 -3.28184 -0.212978 0.119048 -0.68572
1689 1 0.109157 0.0583837 0.0511141 1.33316 -3.30814 0.293847 0.110745 0.00386844
96 1 0.15372 0.076551 0.0227545 1.61783 -3.26375 -0.360539 -0.279375 -0.187644
1693 1 0.149498 0.0523497 0.045068 0.588084 -3.31139 0.00975961 -0.0661267 0.448996
1694 1 0.177593 0.075627 0.0475574 1.70841 -3.29812 0.0243453 0.0306682 -0.246357
100 1 0.192888 0.0676919 0.0182707 1.79083 -3.26928 -0.522532 -0.14064 -0.162125
1698 1 0.21637 0.0641963 0.041721 2.81885 -3.24316 0.0401934 0.276252 -0.202043
104 1 0.232169 0.059744 0.0120693 8.17043 -3.2614 -0.637952 -0.0505572 -0.301408
179 1 0.216428 0.0914118 0.0145384 7.90199 -3.2392 0.173562 0.402756 -0.122117
183 1 0.253225 0.0930873 0.00369169 8.12326 -3.22379 0.400656 -0.195457 0.421783
1785 1 0.278297 0.0921925 0.029428 2.73776 -3.2872 -0.0821521 0.126567 0.0226007
108 1 0.267391 0.0625785 0.00167035 9.28511 -3.27044 0.231877 0.484146 -0.205789
1702 1 0.256051 0.058808 0.034263 8.04363 -3.29692 0.314069 0.0732828 0.461991
1781 1 0.239713 0.0905583 0.0389378 5.81927 -3.26746 0.452798 0.189965 0.116769
112 1 0.322831 0.0655529 0.000990798 0.758354 -3.31682 -0.296039 -0.657682 0.085631
187 1 0.294124 0.0881653 0.000373505 5.91086 -3.33716 -0.220458 0.00154079 0.0712995
1706 1 0.293182 0.0638414 0.0254194 9.66739 -3.23245 0.107845 0.218691 -0.248513
1789 1 0.319563 0.0874022 0.0245474 7.54634 -3.26754 -0.113622 0.113084 -0.126194
191 1 0.348291 0.0882012 0.00336603 0.913465 -3.30689 0.355448 0.477349 -0.598227
116 1 0.379199 0.064759 0.00397463 1.30152 -3.22675 -0.996277 0.650377 -0.387415
1710 1 0.348936 0.0650036 0.0250133 0.625221 -3.29639 0.0450202 -0.337339 -0.0731458
1793 1 0.373121 0.0920004 0.027221 1.18214 -3.27027 0.404216 -0.0993848 -0.530664
195 1 0.402155 0.0920362 0.00309518 1.04651 -3.32862 -0.00586344 -0.16491 0.278677
1714 1 0.40257 0.0681624 0.0260996 0.851079 -3.27335 0.602486 0.131978 0.4732
120 1 0.434261 0.0690896 0.00636485 1.20578 -3.31121 -0.73203 -0.0237564 -0.411475
1718 1 0.458617 0.0699164 0.0290015 0.614843 -3.31239 -0.0351408 0.0472065 -0.0178028
199 1 0.461629 0.0920811 0.00432286 1.59102 -3.23152 -0.407717 0.601576 0.519617
1797 1 0.428359 0.0927501 0.0277156 0.621668 -3.35294 0.264656 0.0599366 0.195347
124 1 0.491229 0.0717082 0.00632594 0.789579 -3.26049 -0.422922 0.0149581 -0.00636097
1801 1 0.482572 0.095357 0.0302627 1.50535 -3.30987 0.601902 0.129013 -0.2067
1722 1 0.515839 0.0734882 0.0292902 0.777219 -3.30585 0.0597315 0.29795 0.555713
203 1 0.513489 0.0980286 0.00910425 1.07729 -3.25073 0.217942 0.152076 -0.152451
128 1 0.543135 0.0780803 0.0075708 1.31357 -3.30265 0.595195 -0.515468 0.755529
1726 1 0.570317 0.0802917 0.0336185 6.96963 -3.25457 -0.105414 -0.56061 -0.600345
207 1 0.570168 0.102805 0.0103737 0.247554 -3.30553 0.197672 -0.357375 0.174699
1805 1 0.54045 0.101368 0.0307271 0.726712 -3.24174 -0.00140405 -0.819451 0.406256
132 1 0.601079 0.0784127 0.0120592 6.17122 -3.29565 -0.244642 0.379935 0.197303
136 1 0.648169 0.0774691 0.0206375 5.86854 -3.28785 0.323762 0.0712493 0.0906334
133 1 0.651438 0.0527229 0.999384 6.53633 -3.27881 0.450445 0.343376 -0.340663
135 1 0.679745 0.0556779 0.0228633 1.08657 -3.37836 0.0702471 -0.0683028 -0.303475
140 1 0.706697 0.0813923 0.0233614 0.96204 -3.25218 -1.0222 -0.167488 -0.499572
137 1 0.709646 0.0577833 0.998281 1.06587 -3.2376 -0.786074 0.0673712 0.350141
134 1 0.679663 0.0808812 0.998334 1.08698 -3.32695 -0.120385 -0.775236 -0.197627
139 1 0.7324 0.0582352 0.0215032 1.83284 -3.26252 0.587106 -0.362956 0.617066
144 1 0.760783 0.0825804 0.0255732 0.364807 -3.36353 0.298322 -0.110112 -0.105221
141 1 0.767206 0.0568255 0.00165947 1.56703 -3.2584 -0.528116 0.683888 0.415172
138 1 0.736304 0.0824679 0.00113481 0.332911 -3.30291 0.225954 0.217557 -0.0398341
145 1 0.821956 0.0587108 0.00716104 0.431266 -3.32313 0.444559 0.350909 0.356871
143 1 0.790944 0.058468 0.0271402 0.3082 -3.32886 -0.247811 -0.0431202 0.499586
148 1 0.817935 0.0832001 0.0308245 0.455452 -3.324 0.485562 -0.0783317 -0.00798553
142 1 0.794121 0.0828497 0.00713831 0.6904 -3.34206 -0.317665 0.30024 -0.547407
147 1 0.848453 0.0593381 0.0338988 0.469022 -3.33131 -0.700542 -0.0307875 -0.310318
149 1 0.88055 0.0601698 0.0139773 0.70267 -3.3574 0.164516 -0.0757323 -0.274132
152 1 0.874492 0.084417 0.034539 0.388347 -3.33498 0.221053 -0.131171 -0.0437129
146 1 0.849698 0.0818221 0.00921932 0.940498 -3.33144 -0.0632061 0.395505 0.394094
151 1 0.904844 0.0611493 0.0397541 0.981733 -3.3152 -0.115267 0.0475955 -0.238256
150 1 0.906434 0.0856463 0.0120162 1.9709 -3.28756 -0.263097 -0.222351 0.550339
156 1 0.928934 0.0858971 0.0409332 0.532854 -3.35624 0.284512 -0.0493484 -0.181429
153 1 0.935128 0.0634855 0.0178564 0.726281 -3.32977 -0.059787 -0.104122 0.0266651
155 1 0.959749 0.0630572 0.0439958 0.645941 -3.33065 -0.558188 0.0283091 0.197423
154 1 0.964525 0.0855011 0.0212371 2.17857 -3.29312 -0.706014 0.752429 0.0624171
159 1 0.012713 0.0641528 0.0486186 0.651873 -3.31385 0.284112 -0.0753601 0.157484
160 1 0.986535 0.0876462 0.0481656 1.2743 -3.29929 -0.297606 0.251416 -0.493835
157 1 0.988901 0.0625438 0.0232075 0.584679 -3.23742 0.421662 0.00880153 0.024518
163 1 0.0675731 0.115857 0.0514485 0.603323 -3.32442 0.318235 -0.250167 0.144019
164 1 0.0381215 0.137218 0.0506501 0.798468 -3.27866 0.500264 0.0827784 -0.277348
161 1 0.04504 0.11446 0.0273148 1.09875 -3.30847 -0.535701 -0.209767 -0.487193
239 1 0.0137582 0.112784 0.0478231 0.532415 -3.34692 -0.375336 -0.168777 -0.0798799
238 1 0.0154557 0.135839 0.0241767 0.843647 -3.3475 -0.0295719 0.419631 0.181868
162 1 0.0695642 0.139055 0.0271368 0.390483 -3.24772 0.000778332 -0.192809 0.254692
165 1 0.073867 0.117595 0.00454978 6.75373 -3.31348 -0.220531 -0.507067 -0.309518
167 1 0.0973607 0.115562 0.0277624 6.49534 -3.31318 0.365497 -0.279137 0.536668
166 1 0.10166 0.141252 0.00627323 7.08449 -3.26549 -0.114649 0.115705 0.36281
169 1 0.112941 0.111448 0.998572 1.76916 -3.25672 0.108432 -0.535759 0.102884
172 1 0.125854 0.137557 0.0327839 6.6227 -3.29429 0.240807 0.411131 -0.275861
171 1 0.140838 0.108183 0.0230812 1.8404 -3.2843 -0.480973 -0.256686 0.356061
176 1 0.166846 0.132263 0.024097 0.925447 -3.21292 -0.336653 -0.0413087 0.438121
170 1 0.138628 0.133343 0.00394956 2.8305 -3.25001 0.512087 0.668078 -0.60594
175 1 0.17807 0.100116 0.0179281 1.46769 -3.26901 0.567356 0.0976848 0.275943
1773 1 0.165857 0.10689 0.0491414 1.50505 -3.32424 -0.182462 0.433245 -0.130844
180 1 0.202882 0.127279 0.0150719 2.85096 -3.17605 0.86926 -0.361578 0.883651
1777 1 0.203257 0.102507 0.043049 1.13911 -3.26716 0.00871069 -0.224734 0.0734452
1778 1 0.227975 0.126996 0.0418847 1.33119 -3.31422 0.331046 0.19086 -0.00243288
184 1 0.240078 0.121242 0.0133693 1.83796 -3.2443 0.239217 -0.00314867 -0.197891
1782 1 0.268648 0.122702 0.0371286 0.800057 -3.27781 -0.301903 0.0331604 -0.364134
188 1 0.277581 0.118881 0.00657078 1.50877 -3.32068 0.627399 -0.159061 0.0372535
263 1 0.268687 0.149143 0.0128029 0.617467 -3.33875 0.0474909 0.00438449 0.245231
1786 1 0.307206 0.117562 0.0313757 0.310559 -3.27 -0.495662 -0.0532018 -0.390453
192 1 0.319097 0.114333 0.000717581 7.41544 -3.31606 -0.276307 -0.641653 -0.0849492
267 1 0.307557 0.144345 0.00813667 0.415288 -3.27693 -0.380279 -0.164845 0.0188643
1869 1 0.332619 0.143202 0.0331382 0.426745 -3.27209 0.363534 0.0965756 0.0812389
271 1 0.344285 0.13752 0.00322926 7.58875 -3.3136 0.75865 0.191422 -0.444597
1790 1 0.34433 0.112872 0.0244057 7.46471 -3.28606 0.35572 0.146273 -0.0130069
196 1 0.376023 0.116 0.00328553 1.1632 -3.30814 -0.492471 -0.348364 -0.210874
1873 1 0.372914 0.139743 0.0268239 6.67867 -3.30087 -0.371648 0.0797185 -0.181622
1794 1 0.401323 0.117319 0.026641 0.832334 -3.26982 -0.0848041 -0.613872 0.521883
275 1 0.403041 0.13926 0.00502429 1.17752 -3.26523 -0.266143 0.330255 -0.695433
200 1 0.430619 0.114047 0.00380229 1.26728 -3.3184 0.0307327 0.506716 0.120845
1877 1 0.427319 0.140017 0.0290729 0.348128 -3.28612 0.0820406 0.486296 0.242965
1798 1 0.455373 0.117309 0.028759 0.273637 -3.30113 -0.21265 0.0599957 0.119948
279 1 0.456414 0.140043 0.00716548 0.656491 -3.323 -0.222602 0.285611 -0.391217
204 1 0.485132 0.117721 0.00670661 0.959969 -3.34123 0.00277754 0.697898 0.0835974
1802 1 0.5135 0.122123 0.0305364 1.99346 -3.2861 -1.13579 0.0118362 0.324531
283 1 0.511957 0.148434 0.00916806 1.61587 -3.26324 -0.207455 -0.987275 -0.227908
1881 1 0.48115 0.143162 0.0307379 0.478245 -3.30822 0.0534303 -0.115056 -0.31863
208 1 0.540148 0.125245 0.0098426 0.566869 -3.24102 0.00622306 -0.0382694 -0.682131
1806 1 0.563556 0.125682 0.0321809 1.51514 -3.25793 0.593043 0.250117 0.845552
287 1 0.566008 0.150176 0.0130673 0.405733 -3.33165 -0.22883 -0.0508737 -0.391204
1885 1 0.533748 0.148091 0.0348204 1.11202 -3.30236 0.505486 0.220633 -0.121368
1809 1 0.595422 0.103518 0.03611 5.96305 -3.24002 0.175524 -0.0475891 -0.358599
211 1 0.625122 0.10321 0.0170848 1.75483 -3.30191 0.221565 0.291582 -0.604639
212 1 0.596691 0.127573 0.0124301 0.712697 -3.35758 -0.272672 -0.115461 0.103
1810 1 0.620272 0.12808 0.037671 6.18283 -3.27443 0.0965651 0.155431 0.170098
1889 1 0.590472 0.15011 0.0365412 0.41086 -3.357 0.18856 0.251711 0.101813
215 1 0.675012 0.103017 0.0187012 2.628 -3.30402 0.143337 0.313299 1.20022
216 1 0.649862 0.13053 0.0176608 1.8581 -3.30566 0.238889 -0.572614 -0.31734
220 1 0.702397 0.130524 0.0245669 1.79636 -3.30375 -0.138574 -0.497117 -0.321745
217 1 0.705322 0.104107 0.998602 1.66266 -3.27517 0.623302 0.240084 0.358055
219 1 0.730234 0.10558 0.0230705 1.2321 -3.31346 0.530039 0.376844 0.214672
224 1 0.761006 0.132089 0.0257992 0.779079 -3.27267 -0.379578 -0.453533 -0.0343959
1818 1 0.729195 0.128826 0.0464535 0.813269 -3.28004 -0.162231 -0.0163536 0.237434
221 1 0.76411 0.107747 0.00519757 0.63949 -3.34419 0.171881 -0.507472 -0.0467729
218 1 0.733444 0.129457 0.00284215 0.707404 -3.31959 -0.12233 0.0997913 -0.158926
223 1 0.791571 0.108869 0.027623 1.15037 -3.29339 -0.7166 -0.408549 0.169621
228 1 0.817963 0.130909 0.0300769 0.899242 -3.30106 -0.102328 0.359494 -0.0169358
225 1 0.820678 0.107795 0.00824647 0.254611 -3.29625 -0.117552 -0.23055 -0.304628
222 1 0.790047 0.134276 0.00567843 1.4714 -3.21032 0.617198 -0.771671 0.120622
227 1 0.847808 0.106589 0.0308614 1.57345 -3.30785 -0.479911 0.121615 0.371213
229 1 0.87722 0.10787 0.010939 0.884533 -3.32001 -0.124299 0.143184 0.00205153
232 1 0.869523 0.133293 0.0331036 1.05496 -3.28517 0.228197 -0.179812 0.613966
226 1 0.846336 0.131784 0.00904145 0.295749 -3.27381 0.0958808 0.155133 -0.106222
231 1 0.89967 0.109473 0.037639 0.607684 -3.25261 -0.479337 -0.537536 0.241838
236 1 0.925985 0.131558 0.0401977 1.02462 -3.26507 0.524729 0.790875 0.376302
233 1 0.929173 0.109536 0.019079 1.75196 -3.2586 0.960458 -0.101205 -0.669562
230 1 0.901388 0.132773 0.01638 1.26802 -3.27771 0.185845 0.242708 -0.86501
235 1 0.958317 0.112043 0.0441285 1.6131 -3.31557 -0.537879 -0.501453 -0.105956
234 1 0.957298 0.134409 0.0207911 0.592214 -3.31805 -0.0841842 0.273179 -0.420705
240 1 0.983766 0.137453 0.0439754 1.67244 -3.31912 -0.0439573 -0.318725 0.311088
237 1 0.985531 0.112291 0.0231853 1.34867 -3.27808 0.697 -0.158682 0.131703
244 1 0.0374685 0.18417 0.0490122 0.312675 -3.34287 0.111599 0.191634 0.25086
242 1 0.0468461 0.186586 0.00191319 1.50056 -3.27197 -0.711109 -0.0907451 0.0596593
241 1 0.0423594 0.161353 0.0267112 0.254885 -3.29142 -0.190132 -0.140567 -0.108486
319 1 0.011567 0.159229 0.0485272 0.691606 -3.26418 -0.419652 0.306484 -0.615098
318 1 0.0159657 0.183209 0.0234837 1.36687 -3.30712 -0.693964 0.601637 0.101072
243 1 0.0679881 0.161182 0.0493464 1.06755 -3.29627 -0.454799 0.214856 0.903017
248 1 0.0691739 0.186143 0.0290181 1.05914 -3.34235 0.0247368 -0.138587 -0.548507
245 1 0.071996 0.162939 0.00506933 0.503934 -3.24129 0.272835 0.414993 0.108282
247 1 0.0966648 0.161022 0.0297427 1.36304 -3.23386 0.323752 0.591668 -0.380869
246 1 0.0983712 0.187912 0.00505488 0.619842 -3.2714 -0.499663 0.648692 0.617161
249 1 0.126315 0.167186 0.00783332 8.5677 -3.29282 0.221328 -0.582267 -0.097278
252 1 0.12146 0.188212 0.0314627 0.748773 -3.3098 0.522013 -0.052582 -0.139936
251 1 0.153654 0.162777 0.0293471 8.81518 -3.36728 -0.191416 0.234499 0.690626
256 1 0.178362 0.189986 0.0315683 6.76905 -3.30398 0.041845 -0.205204 0.660921
250 1 0.15388 0.189779 0.00871913 7.62527 -3.28761 -0.380595 0.304404 0.0338492
259 1 0.230453 0.152455 0.0175111 1.03447 -3.30084 -0.248838 0.114078 0.560192
255 1 0.192615 0.156419 0.025266 1.30292 -3.3089 -0.0955726 0.465842 -0.139047
260 1 0.215132 0.18348 0.0269672 0.942032 -3.29318 0.248779 -0.0604163 -0.257643
254 1 0.191809 0.183061 0.000483085 0.983395 -3.24871 0.0806573 0.367498 0.458427
264 1 0.253628 0.179456 0.0196103 0.606355 -3.30869 0.408571 0.17412 0.341683
1861 1 0.2561 0.155117 0.0427318 0.683202 -3.34334 -0.132117 -0.192306 -0.0886743
1862 1 0.281053 0.181422 0.0437966 0.716605 -3.3547 -0.188779 -0.0762965 0.581898
268 1 0.294797 0.173905 0.0162821 0.499052 -3.28732 -0.309426 0.207911 -0.0916289
1866 1 0.31907 0.174649 0.0400215 0.356741 -3.31323 0.164476 0.283483 0.206101
272 1 0.333604 0.168488 0.0114457 0.653704 -3.28556 -0.0278736 0.31713 -0.456905
1865 1 0.295698 0.148305 0.0382357 0.697821 -3.2858 -0.879868 0.0939594 -0.0623404
276 1 0.371113 0.163045 0.00340283 7.30903 -3.34799 0.378974 -0.244833 -0.0628109
351 1 0.360571 0.194022 0.0125242 0.746203 -3.29696 -0.337722 -0.199528 -0.411877
1870 1 0.357798 0.169602 0.0346004 0.286279 -3.2974 0.398119 -0.165435 0.0781278
1953 1 0.384481 0.195367 0.0366666 0.36835 -3.30374 0.226918 0.169812 0.0540305
355 1 0.398918 0.18937 0.00485213 6.08147 -3.30849 0.120566 -0.295669 -0.263863
1874 1 0.398491 0.165404 0.0276687 5.82978 -3.35618 -0.096374 -0.37086 0.106469
280 1 0.427615 0.163447 0.00338488 1.06533 -3.28884 -0.381244 -0.109204 0.327205
359 1 0.451006 0.187603 0.00535985 1.75358 -3.30978 0.257642 0.451773 0.171238
1878 1 0.452709 0.166193 0.032322 1.01603 -3.25055 -0.758796 -0.230665 -0.601459
1957 1 0.423059 0.189971 0.0296268 7.18925 -3.31011 0.354043 0.146689 0.139272
284 1 0.482182 0.166285 0.00681817 0.681451 -3.2905 -0.597567 0.319591 0.0526364
1882 1 0.503863 0.170127 0.0322491 0.861879 -3.26381 0.37108 -0.155888 0.434781
1961 1 0.475832 0.189759 0.0313187 1.22664 -3.24729 -0.433229 0.845923 -0.0157921
363 1 0.506229 0.192963 0.0096033 0.387091 -3.27641 -0.424864 0.261554 -0.0840377
288 1 0.534542 0.172574 0.0119138 0.488454 -3.2701 0.552096 -0.17399 -0.157427
1886 1 0.560362 0.174647 0.0346657 0.572091 -3.26891 -0.275605 -0.591334 0.810676
367 1 0.559143 0.19773 0.013504 1.01464 -3.2796 0.324164 0.342405 -0.301189
1965 1 0.531671 0.196723 0.0350477 0.889385 -3.30646 -0.595185 0.00221309 -0.0433756
292 1 0.588648 0.176006 0.0156826 1.92464 -3.1599 1.10674 -0.626682 -0.224365
1969 1 0.587102 0.19735 0.0365847 1.03929 -3.27475 -0.0872758 0.650179 0.748577
291 1 0.622606 0.151812 0.0154637 0.585238 -3.35674 -0.604033 0.578415 0.0698841
1890 1 0.616127 0.175299 0.0405839 0.732581 -3.30076 0.158833 0.0229142 -0.796442
1893 1 0.647371 0.15135 0.0414596 2.12895 -3.26544 -0.526467 0.434662 -0.0599456
296 1 0.646833 0.177312 0.0175398 0.751944 -3.3343 0.176676 -0.406022 0.220947
371 1 0.617313 0.197172 0.0176583 1.65083 -3.27482 0.198108 0.71038 -0.296305
1973 1 0.643718 0.200776 0.0408261 0.630671 -3.3006 -0.347629 0.244185 0.250251
295 1 0.676974 0.154659 0.0229597 2.47326 -3.21969 -0.121201 -0.293459 -0.963103
1894 1 0.673131 0.17656 0.0433908 1.34141 -3.32685 -0.194812 0.728235 0.217473
1897 1 0.699794 0.154543 0.0462407 1.00086 -3.25183 0.245976 -0.121589 0.111681
300 1 0.703838 0.180033 0.020941 2.508 -3.31078 -0.0908648 -0.552027 0.857782
299 1 0.729683 0.152765 0.0235314 1.30155 -3.27273 -0.0496514 0.628918 -0.0353006
304 1 0.756264 0.178937 0.025875 0.821064 -3.32059 0.402943 -0.171542 0.125928
1898 1 0.728975 0.178853 0.0477867 1.40366 -3.28982 -1.01336 -0.35167 0.00929335
1901 1 0.751855 0.153983 0.0467847 2.94115 -3.24157 0.91889 0.15745 0.954672
303 1 0.787896 0.155255 0.0285484 0.754321 -3.3402 -0.306817 0.366619 -0.0901632
308 1 0.813708 0.180395 0.0296775 0.380804 -3.27204 -0.335201 -0.337417 -0.356594
305 1 0.816357 0.155846 0.00619741 0.729279 -3.34164 0.528989 0.641611 0.339626
302 1 0.78903 0.18235 0.00583801 1.3234 -3.30252 -0.454674 -0.887838 -0.0710372
309 1 0.871622 0.156489 0.0118158 0.701205 -3.28249 0.157725 0.233378 -0.497967
307 1 0.842335 0.156874 0.0304964 0.310603 -3.31005 -0.295426 0.143708 0.240083
312 1 0.866779 0.18238 0.0315689 1.6908 -3.33185 0.0354255 -0.218013 0.616409
306 1 0.844938 0.181933 0.00622005 2.27648 -3.21819 -0.511366 -0.385611 1.1218
311 1 0.897164 0.157316 0.0356702 0.568377 -3.29949 0.265454 0.116328 0.594935
316 1 0.927165 0.18164 0.0408791 1.47267 -3.34366 -0.866624 -0.0425935 -0.257538
313 1 0.927923 0.159645 0.0156183 1.65624 -3.26865 0.445095 -0.51453 0.253457
310 1 0.900592 0.180439 0.0150802 1.20994 -3.2863 -0.189213 0.65061 -0.443431
315 1 0.95232 0.157997 0.0408814 1.77246 -3.29964 0.241117 -0.219925 0.528715
320 1 0.982338 0.181818 0.0465323 1.42411 -3.30083 0.0326953 -0.00314054 -0.619973
317 1 0.986297 0.160736 0.022502 0.49626 -3.3616 0.141987 -0.233252 -0.267903
314 1 0.957589 0.182153 0.0210496 1.31882 -3.30979 -0.172861 0.460412 -0.391025
323 1 0.0411469 0.209342 0.0233863 1.19776 -3.31442 -0.163596 0.260304 0.460325
1922 1 0.0357192 0.230604 0.0476095 1.87189 -3.2869 -0.25384 0.278601 -0.0953766
324 1 0.0094552 0.232719 0.0245055 0.965115 -3.31306 -0.105568 -0.30969 -0.477923
399 1 0.00817812 0.207203 0.0461504 0.466513 -3.36904 0.130768 -0.134328 -0.108894
1925 1 0.064514 0.208943 0.0497161 0.583436 -3.26439 -0.488323 -0.0630175 0.598042
328 1 0.0644626 0.236402 0.0261904 0.971659 -3.31527 -0.21209 -0.495315 -0.585087
325 1 0.0688437 0.211417 0.0017343 1.22562 -3.29158 0.322435 0.559458 0.50593
327 1 0.0935209 0.211558 0.0310499 1.06493 -3.29133 0.197857 -0.0156203 -0.931322
332 1 0.120758 0.236525 0.0316468 0.264365 -3.33441 -0.0764994 -0.29889 -0.230803
326 1 0.0957728 0.236036 0.0052354 0.463357 -3.37012 -0.0449912 0.0112913 0.321426
329 1 0.123928 0.212541 0.00986536 1.1183 -3.34986 0.064469 0.26662 -0.357806
331 1 0.14996 0.212338 0.0340512 0.601728 -3.30328 -0.245678 -0.16468 -0.0724737
336 1 0.173662 0.23678 0.0343598 1.70404 -3.31238 0.691427 0.336636 0.266674
330 1 0.150078 0.240187 0.010994 1.12559 -3.26069 -0.51147 -0.766535 -0.553032
333 1 0.179287 0.214882 0.0108165 7.3576 -3.31984 0.243218 0.199793 -0.0559179
335 1 0.206288 0.216524 0.0344422 7.0538 -3.29476 -0.75248 -0.310462 0.291296
334 1 0.209108 0.240392 0.0132117 7.14267 -3.31746 -0.577786 -0.545178 -0.356886
340 1 0.23256 0.241004 0.0393813 6.53654 -3.29683 0.0442219 -0.136428 -0.143709
337 1 0.217604 0.207073 0.00316815 2.0661 -3.30839 -0.287658 0.448982 -0.214202
339 1 0.241063 0.211816 0.0264341 1.85992 -3.27294 0.649869 -0.229673 0.281461
338 1 0.245212 0.23584 0.00305482 1.51476 -3.30396 -0.20416 -0.0893179 0.0702531
343 1 0.280459 0.205432 0.0218463 0.311025 -3.30252 0.143943 -0.176812 0.25163
344 1 0.269538 0.2349 0.0282176 1.53975 -3.3074 -0.194669 0.406834 0.0576313
1949 1 0.346294 0.199713 0.0405564 1.00666 -3.31994 -0.403446 0.615392 0.395494
347 1 0.320279 0.201159 0.0176651 0.502889 -3.3419 0.074989 -0.357237 -0.0824906
348 1 0.30856 0.232068 0.0229763 0.403915 -3.27811 -0.260856 -0.220141 -0.184435
352 1 0.34767 0.224802 0.0175989 0.360723 -3.28737 -0.147956 -0.00891914 -0.0605756
1945 1 0.306217 0.208943 0.0465981 1.20983 -3.35345 0.291841 -0.383183 0.0370864
1946 1 0.333117 0.234366 0.0464074 0.895349 -3.24617 -0.36733 -0.229428 0.135608
356 1 0.385529 0.218767 0.0130595 0.773162 -3.33079 0.482231 0.305007 -0.0256722
1950 1 0.370626 0.228972 0.0426279 1.24302 -3.31206 0.326895 -0.352874 -0.263749
1954 1 0.410637 0.221558 0.0397267 2.07386 -3.33049 -0.459392 -0.0289686 -0.445238
360 1 0.42599 0.214551 0.00552092 6.46685 -3.29316 -0.422221 -0.46918 0.142689
439 1 0.448572 0.23852 0.00791284 6.43209 -3.31325 0.43814 0.647796 -0.211678
1958 1 0.448234 0.217273 0.0327036 4.06145 -3.25317 -0.300342 -0.716825 -0.310672
364 1 0.476015 0.213652 0.00756059 1.21385 -3.31639 -0.360745 -0.160669 -0.0843053
1962 1 0.498425 0.215345 0.0331309 1.95931 -3.28098 0.570823 0.381751 -0.082641
443 1 0.499223 0.238758 0.00853087 2.73758 -3.26452 0.27006 0.554033 0.405548
2041 1 0.473001 0.240558 0.0333504 6.22906 -3.26338 0.238912 0.558193 -0.155323
2045 1 0.526273 0.241185 0.037952 1.41568 -3.34834 0.3908 -0.0429358 -0.712379
368 1 0.529 0.219467 0.0108624 1.13357 -3.31596 0.320507 0.0611734 0.368774
1966 1 0.558506 0.220602 0.0371575 0.672859 -3.34294 -0.456393 0.232737 -0.199982
447 1 0.559717 0.243635 0.0137053 0.752928 -3.3305 -0.439881 0.159665 0.0735331
372 1 0.588701 0.22239 0.0153869 0.66458 -3.35121 -0.105738 -0.391053 -0.181738
2049 1 0.58214 0.246079 0.0397545 1.04008 -3.27418 0.00234418 -0.347304 -0.455939
1970 1 0.613263 0.222248 0.0401263 0.414491 -3.38869 0.103253 0.166091 -0.311443
451 1 0.61242 0.246785 0.0151695 0.452045 -3.33242 0.313661 -0.207506 0.507066
376 1 0.643911 0.224623 0.0170038 0.501113 -3.37802 -0.287327 0.263281 0.111892
2053 1 0.640081 0.2492 0.040658 0.553836 -3.37379 -0.160077 -0.198995 0.0447181
375 1 0.67183 0.201654 0.0214819 1.10916 -3.30238 0.5548 -0.0533362 -0.455325
1974 1 0.668963 0.22793 0.042061 1.48184 -3.29804 -0.212185 -0.77868 0.292854
1977 1 0.697368 0.203478 0.0463024 0.694061 -3.34969 0.0672107 -0.403307 -0.10648
380 1 0.699926 0.224901 0.0215076 0.912119 -3.29359 -0.482885 0.22853 0.440409
2057 1 0.692691 0.251512 0.045034 0.870636 -3.30479 0.246018 0.0140659 0.00485211
455 1 0.671064 0.249416 0.0199274 0.937897 -3.29552 -0.548354 -0.385807 -0.487382
379 1 0.728875 0.203526 0.0268513 1.38359 -3.28688 -0.0157429 -0.223516 -0.303752
384 1 0.753955 0.226759 0.0270366 0.603786 -3.36499 0.10764 0.0446716 0.185537
1978 1 0.723001 0.227664 0.0486694 0.650182 -3.31713 0.109852 -0.223605 -0.20234
459 1 0.724418 0.249297 0.0238621 0.503183 -3.37862 0.0758925 0.301107 0.0261273
1981 1 0.754809 0.200973 0.0511764 1.61295 -3.2885 0.256481 0.700667 -0.0911815
381 1 0.758303 0.203587 0.00346415 0.226277 -3.35063 0.169136 0.410857 0.154108
383 1 0.783357 0.202681 0.0289953 0.635337 -3.31791 -0.160792 0.273168 0.0689487
388 1 0.808015 0.228966 0.0321951 0.702683 -3.26166 0.0800691 -0.052204 -0.0299104
385 1 0.813922 0.205487 0.00814269 0.394975 -3.25926 -0.00691056 -0.0429602 -0.0628535
382 1 0.786315 0.228622 0.00756103 1.11548 -3.32086 -0.417139 -0.485472 -0.567483
387 1 0.83648 0.204666 0.0336845 1.2468 -3.29822 0.687742 0.420735 -0.232454
392 1 0.864644 0.231274 0.035834 1.45538 -3.3434 0.299946 -0.288394 -0.0522974
389 1 0.871303 0.206082 0.0114511 0.818173 -3.28562 -0.60263 0.0480244 0.130904
386 1 0.838574 0.229002 0.0127717 1.91388 -3.29185 0.459798 -0.102146 -0.999205