ITEM: TIMESTEP
8750
ITEM: NUMBER OF ATOMS
32000
ITEM: BOX BOUNDS pp pp pp
3.4158681911055075e+00 7.7584131808894540e+01
-1.7296735334069595e+00 8.2729673533406952e+01
-1.7221287174059938e+00 8.2722128717405482e+01
ITEM: ATOMS id type xs ys zs c_csym c_peratom fx fy fz
8 1 0.0489281 0.0249776 0.0263532 0.712335 -3.29166 0.352516 -0.24874 -0.458526
1605 1 0.0495812 1.00036 0.0492787 0.76211 -3.32426 0.0277786 -0.541016 0.00536163
1602 1 0.0242422 0.024533 0.0491895 0.678534 -3.29066 -0.042481 -0.112268 0.379994
1685 1 0.052824 0.0489184 0.0502166 1.50352 -3.20953 -1.20819 -0.0689584 0.294483
12 1 0.0980181 0.0240127 0.0233128 0.738397 -3.3639 0.430132 0.337331 0.164165
87 1 0.0729838 0.049135 0.0248997 0.343434 -3.21626 0.73586 -0.272975 -0.361329
1606 1 0.0745473 0.0238021 0.0501338 0.218926 -3.27445 0.275905 -0.120267 -0.124354
1609 1 0.100058 0.99999 0.0494653 0.251784 -3.35834 0.226257 -0.13904 0.136544
6 1 0.0739634 0.0244141 -0.00146344 0.424386 -3.28928 -0.203735 -0.103252 0.640394
16 1 0.15053 0.0235301 0.0241452 0.456467 -3.31433 0.250384 -0.0503984 0.00812433
1610 1 0.126846 0.025255 0.048847 0.695386 -3.31555 -0.523043 -0.487935 0.185648
11 1 0.123624 0.000283038 0.0236831 0.870685 -3.33121 0.381706 -0.039581 0.226232
91 1 0.125958 0.0493844 0.0245949 0.396393 -3.26977 -0.739751 -0.110412 -0.308872
15 1 0.176178 0.997661 0.0249758 0.796219 -3.3618 -0.239249 0.278172 -0.13179
1613 1 0.14992 0.99827 0.0505098 0.421048 -3.35632 0.118865 0.318663 -0.504895
1614 1 0.176224 0.0243308 0.0477099 0.561913 -3.27969 -0.442878 -0.010043 0.271272
20 1 0.200571 0.0244636 0.0242936 0.248355 -3.31077 0.0356155 -0.299846 -0.500554
1618 1 0.225674 0.0226476 0.0492521 0.988279 -3.26052 -0.30257 0.0240057 0.352079
1697 1 0.203259 0.0482249 0.0473747 1.53648 -3.28341 -0.501465 0.186564 0.570992
24 1 0.250221 0.02216 0.0264204 1.26531 -3.25284 -0.321261 0.376013 -0.741088
23 1 0.274719 0.998806 0.0261408 0.51719 -3.25328 0.0436791 -0.656136 -0.342108
103 1 0.272706 0.0487352 0.0245725 0.491551 -3.3436 0.208938 -0.261488 0.123242
1622 1 0.275546 0.0228265 0.0480291 1.12762 -3.27926 0.0810453 0.606118 0.842316
22 1 0.273686 0.0260654 0.000427271 1.6364 -3.34587 0.035686 -0.439146 -0.061045
21 1 0.249408 0.999066 0.000467473 0.172625 -3.38375 0.149868 0.323157 0.152633
28 1 0.29939 0.0217352 0.0237303 1.48911 -3.25686 0.245515 0.906234 0.012432
32 1 0.349818 0.0247507 0.0260242 0.309657 -3.27015 -0.209209 -0.0594747 -0.101647
25 1 0.298087 0.998684 1.00092 0.942359 -3.3391 0.400372 0.139446 -0.0918837
26 1 0.326653 0.0235319 0.000357261 0.593724 -3.27347 -0.518491 0.251883 0.469695
29 1 0.349366 -0.00128746 0.00165404 0.512344 -3.28411 0.620335 -0.0746138 -0.221958
30 1 0.373652 0.0238248 0.000659808 0.357623 -3.37218 0.395112 0.399304 0.195034
36 1 0.401118 0.0242856 0.0261169 0.729312 -3.33277 -0.188064 0.403086 -0.351921
113 1 0.400237 0.0514338 -0.000759939 0.599398 -3.31736 -0.170691 -0.334089 0.375192
35 1 0.425624 1.00205 0.022853 2.40514 -3.26905 -0.0990002 -0.434599 0.55504
40 1 0.450371 0.0278839 0.0271132 2.20341 -3.24836 -0.489417 -0.756449 -0.400909
115 1 0.425099 0.0501592 0.0243381 0.412828 -3.3078 -0.0288642 0.129155 0.0342696
34 1 0.425903 0.0266977 -0.00235855 1.70227 -3.30732 -0.0372707 -0.389651 0.786358
44 1 0.502081 0.0266468 0.025989 0.69519 -3.3732 -0.0372644 -0.153836 -0.067719
119 1 0.474906 0.0506304 0.0257696 0.398713 -3.25104 0.202509 0.0898266 -0.122193
123 1 0.526824 0.052171 0.0263424 1.36668 -3.25001 -0.173832 -0.355302 -0.588302
1721 1 0.502728 0.0506958 0.049751 1.05836 -3.34003 -0.354164 -0.42194 0.268298
42 1 0.526757 0.0229377 0.000323376 1.02743 -3.29925 -0.249092 0.651779 -0.131476
48 1 0.5509 0.0254895 0.0244578 0.528142 -3.27324 -0.305005 0.21351 0.483471
1646 1 0.576001 0.0255934 0.0509819 0.276069 -3.36228 0.00949799 -0.202385 0.00262549
1725 1 0.550192 0.0494435 0.0495457 0.844586 -3.33286 0.421207 0.185584 0.426577
52 1 0.601143 0.025312 0.0259004 0.413127 -3.32714 0.112857 0.1708 -0.0745169
50 1 0.628119 0.0243727 0.000240422 1.01313 -3.28091 -0.144304 -0.157866 0.147051
129 1 0.604384 0.0491453 0.000918822 1.65585 -3.31357 -0.766525 0.0313149 0.0875546
56 1 0.649402 0.0256709 0.0261564 0.774386 -3.28053 0.588832 -0.360773 -0.152414
1653 1 0.652005 0.999667 0.0493173 0.711851 -3.31406 -0.675303 0.0409326 -0.242913
60 1 0.698891 0.0235058 0.0250802 1.12766 -3.22332 0.476093 0.450696 0.467704
135 1 0.677266 0.0499054 0.0256747 0.535055 -3.34177 -0.135713 0.404985 -0.0159417
137 1 0.700212 0.0510041 -0.000791648 0.671246 -3.25337 0.0877963 -0.31266 0.308409
1657 1 0.701652 0.997721 0.0495517 0.878757 -3.28467 -0.435822 0.138487 -0.0315637
53 1 0.649802 0.99799 0.999779 0.864574 -3.29515 0.00989546 0.468383 0.364837
54 1 0.675231 0.0263242 1.00265 2.20996 -3.29189 -0.633983 -0.335269 -0.612003
57 1 0.701739 1.00142 -0.000368416 1.83037 -3.26143 -0.181661 -0.638167 0.35211
64 1 0.750155 0.0274793 0.027387 2.44204 -3.19879 0.080158 -0.854903 -1.1295
59 1 0.724095 1.00018 0.0255627 0.406776 -3.2853 0.329441 -0.26701 -0.411371
1658 1 0.72438 0.0253281 0.0487444 1.0581 -3.25517 -0.151567 -0.524308 0.495695
63 1 0.775816 1.00124 0.0239066 0.930767 -3.29838 -0.49381 -0.400102 0.272368
68 1 0.799584 0.0259771 0.0243659 0.797318 -3.20616 0.885563 -0.118635 0.0900538
67 1 0.825729 0.00239123 0.0249879 1.07354 -3.33383 0.344262 -0.304527 0.0894918
1665 1 0.800227 0.00153858 0.0498654 0.432651 -3.31528 0.214856 -0.394247 -0.0308261
1666 1 0.827837 0.0252246 0.0507212 0.951459 -3.30581 -0.0109432 -0.232265 -0.138001
72 1 0.852871 0.0251635 0.0242738 1.20822 -3.33827 -0.104964 0.0370431 0.224241
1669 1 0.852359 1.00049 0.0511361 0.74412 -3.26421 -0.725166 -0.119071 -0.580416
70 1 0.876635 0.0229239 1.00005 0.924097 -3.31475 -0.422964 0.261303 -0.251756
76 1 0.899603 0.0255862 0.0249457 0.517323 -3.2623 -0.60437 -0.379539 0.0234495
75 1 0.923353 1.00041 0.0235629 1.17674 -3.34074 0.427984 -0.432582 0.621306
1674 1 0.922793 0.0248376 0.0497857 0.653068 -3.28775 0.615255 -0.233443 0.0862293
4 1 -0.00221577 0.0240238 0.0254959 0.779597 -3.26439 0.348867 -0.241128 -0.0502547
80 1 0.952024 0.0237794 0.0252393 0.96939 -3.28972 -0.310241 -0.187259 0.0714856
79 1 0.975097 0.997439 0.0259519 0.521715 -3.32703 0.296244 0.314429 -0.14356
78 1 0.975296 0.0232097 -0.000538139 0.474154 -3.30396 0.137784 0.388687 0.198156
1601 1 0.000126078 0.998008 0.0525204 1.03313 -3.34184 -0.0769138 -0.0853784 -0.212301
1678 1 0.974479 0.0233935 0.0505898 0.270712 -3.29171 0.0470094 -0.134669 0.178874
1677 1 0.9494 0.99879 0.0500749 0.221757 -3.3146 -0.435247 0.237054 -0.208081
83 1 0.0236418 0.0502984 0.0266106 1.29248 -3.32701 0.369351 -0.12546 -0.347984
88 1 0.0515503 0.0740931 0.0256847 1.03133 -3.28137 -0.942973 0.143424 -0.0384466
82 1 0.0258388 0.0744662 -0.00239948 1.38251 -3.24001 -0.243457 0.0303835 0.967081
1681 1 0.998854 0.048129 0.0504295 0.350918 -3.2649 -0.295838 0.19248 0.0388912
1682 1 0.0250951 0.0736933 0.0506534 0.466091 -3.31452 0.0999666 -0.191752 -0.135725
92 1 0.0989605 0.0730504 0.0242322 0.269242 -3.34573 0.0104154 0.143317 -0.0286034
86 1 0.0734574 0.0746606 1.00008 0.421981 -3.26779 0.401865 -0.081639 0.0276154
96 1 0.150314 0.0761892 0.0248876 0.840304 -3.31169 -0.0629677 -0.249535 -0.133493
1690 1 0.125564 0.0717451 0.0487597 1.17175 -3.26568 -0.243294 0.598575 0.336159
175 1 0.176444 0.100664 0.0260462 0.813017 -3.31246 -0.272583 -0.00464564 -0.0204318
1693 1 0.150358 0.0489376 0.0468256 1.02756 -3.22717 0.726537 0.111395 0.698983
90 1 0.125311 0.0746566 0.999804 0.318984 -3.31697 -0.360243 0.074407 0.142549
99 1 0.227371 0.0488021 0.0239744 0.980877 -3.23411 -0.284457 -0.282441 0.0519855
95 1 0.177039 0.0495499 0.0234372 0.516637 -3.3154 -0.440782 -0.0472294 0.175411
100 1 0.200649 0.074344 0.0242849 0.35318 -3.2844 0.0158829 0.146994 0.228499
1698 1 0.225334 0.0733724 0.0479745 1.4523 -3.25617 -0.0433966 0.685216 0.63124
104 1 0.249515 0.0739358 0.025433 0.372126 -3.16589 -0.12078 0.378104 -0.520013
1701 1 0.246678 0.0487445 0.0522452 2.87439 -3.23679 0.753213 -0.306445 -0.654272
183 1 0.274644 0.0986035 0.0249645 0.4154 -3.30277 -0.324107 0.206064 0.344616
1702 1 0.271047 0.0729 0.0491715 2.151 -3.23751 0.895189 0.176594 0.431087
102 1 0.272772 0.0736374 0.00111131 0.515965 -3.28218 0.309848 0.0833632 -0.526058
107 1 0.324509 0.0498885 0.0252069 0.503934 -3.38343 0.0798786 -0.157423 0.0442596
105 1 0.301734 0.0494903 -0.000633316 1.31272 -3.38274 -0.375601 0.0126226 0.288957
108 1 0.297719 0.0731024 0.026263 0.830264 -3.32337 0.386651 0.0554837 -0.173
106 1 0.325733 0.0767858 0.000813794 1.87455 -3.28306 -0.45325 -0.801044 0.201267
112 1 0.352458 0.0732071 0.0255313 1.8187 -3.2636 -0.87138 0.545678 -0.0998986
1789 1 0.349855 0.0986012 0.0498808 0.216369 -3.28375 0.0856127 0.0110596 -0.0455469
109 1 0.348853 0.0502843 -0.000265851 0.705176 -3.29514 0.0999209 -0.373759 0.429559
185 1 0.297461 0.0975251 0.00107341 1.03578 -3.24071 0.108717 0.2712 -0.258766
111 1 0.373545 0.0481434 0.0261535 0.959784 -3.25372 0.940935 -0.0601717 -0.577697
191 1 0.373433 0.100245 0.0244125 0.425669 -3.32608 0.231479 -0.445169 -0.137448
116 1 0.399359 0.0731938 0.0251098 0.609861 -3.35621 -0.156413 0.437134 -0.0693593
1710 1 0.375123 0.0742786 0.0502771 0.16515 -3.28039 0.234769 0.130232 0.26797
110 1 0.373188 0.074565 0.999951 0.594489 -3.2709 0.725429 0.219557 0.134008
120 1 0.451666 0.0762552 0.0256205 0.625523 -3.28829 -0.281199 -0.289018 -0.751494
195 1 0.425444 0.0989734 0.024716 0.457192 -3.35361 -0.356566 0.291946 -0.0525931
114 1 0.424777 0.0766155 -0.00107199 0.526783 -3.3289 0.33601 -0.147824 0.373885
124 1 0.497631 0.0764901 0.0233048 2.1409 -3.27827 0.457962 -0.131595 0.617679
122 1 0.525015 0.0739644 1.00123 0.703119 -3.31228 -0.0236288 0.348215 -0.470345
199 1 0.47523 0.101823 0.0260234 0.597941 -3.21368 -0.0405346 -0.0756564 -0.525802
118 1 0.474946 0.0768274 0.999154 0.405521 -3.28768 -0.370469 -0.313435 -0.245849
121 1 0.500064 0.0510149 0.00214983 1.00789 -3.30998 -0.0476836 -0.450594 -0.444811
128 1 0.551501 0.0762508 0.0258923 0.794956 -3.30105 0.435771 -0.385389 -0.259724
127 1 0.575654 0.0494045 0.0240221 0.661377 -3.31312 0.0845474 0.316194 0.404993
126 1 0.577147 0.0737464 -0.00250005 2.32964 -3.26351 -0.43991 0.193844 1.12493
1805 1 0.551059 0.0993495 0.0507319 0.537696 -3.27797 -0.365304 0.384505 0.0494362
1726 1 0.575246 0.075742 0.0514805 0.605468 -3.21303 -0.208803 -0.831062 -0.136583
131 1 0.627089 0.0507604 0.0262316 0.665117 -3.27464 -0.576172 -0.0833806 0.219642
132 1 0.599216 0.0741191 0.0264685 1.08969 -3.34586 0.102681 0.0356295 -0.50926
1730 1 0.624155 0.0738374 0.0511091 0.575346 -3.28934 0.547528 0.00720325 -0.188116
211 1 0.626892 0.0997096 0.0244056 0.525637 -3.32 -0.590891 0.21952 0.126856
130 1 0.625251 0.0763299 1.00174 0.970396 -3.28969 -0.036313 -0.16023 -0.179816
136 1 0.649933 0.0752048 0.0254626 0.408527 -3.30619 0.558193 -0.173265 -0.0154378
140 1 0.702868 0.0754197 0.0247753 0.539712 -3.35438 -0.238181 -0.16347 0.166372
134 1 0.676454 0.0744731 1.00001 0.462033 -3.2846 0.00221041 0.220935 0.352766
215 1 0.67649 0.0988639 0.0224674 0.85276 -3.33231 -0.104758 0.169044 0.413076
1734 1 0.675099 0.0756277 0.0503904 0.591383 -3.27948 0.521796 -0.631295 -0.171144
133 1 0.64968 0.0508277 0.000554866 0.873038 -3.31381 0.46873 -0.0977164 0.201958
217 1 0.702807 0.0998918 -0.000307048 0.458868 -3.33344 -0.0635885 -0.0105074 -0.306371
139 1 0.726109 0.0507975 0.0249495 0.462122 -3.3361 -0.267259 0.0607866 -0.175054
144 1 0.75236 0.0747641 0.0255299 0.89807 -3.29693 -0.251966 -0.21645 -0.462075
219 1 0.727564 0.0998821 0.0237494 0.694024 -3.28334 -0.0993867 -0.104353 0.497921
141 1 0.751699 0.0499644 0.997887 1.35124 -3.32399 0.0974883 -0.0373143 0.648268
221 1 0.749117 0.0987487 0.998795 1.39218 -3.20286 0.465218 -0.124205 -0.143088
143 1 0.776532 0.0491014 0.0261027 0.804676 -3.30071 -0.136364 0.758654 -0.169685
142 1 0.775652 0.0756388 1.00054 0.987775 -3.30902 0.195779 -0.376335 -0.356664
148 1 0.799433 0.0765147 0.0262565 1.61243 -3.3015 0.109279 -0.36398 0.0909833
147 1 0.826514 0.051062 0.0246281 0.651023 -3.28646 -0.319184 -0.359081 0.531116
151 1 0.875436 0.0520229 0.0262615 0.674268 -3.30064 -0.0871227 -0.130483 0.0903976
152 1 0.849862 0.0765203 0.0274009 1.24293 -3.27147 0.304637 -0.159526 -0.193018
1750 1 0.876123 0.0772748 0.0518842 0.676131 -3.34512 -0.0758707 -0.503185 -0.194774
231 1 0.876351 0.0986187 0.0248517 0.481879 -3.29044 -0.154498 0.147086 0.0810922
146 1 0.824361 0.0731582 1.00238 2.32475 -3.2693 0.180245 0.479487 -0.728195
155 1 0.923105 0.0484705 0.0256044 1.16281 -3.23273 0.681072 0.380828 -0.184234
156 1 0.902029 0.0753067 0.0251443 0.793838 -3.29001 -0.342322 -0.235234 0.307272
1754 1 0.925725 0.0725041 0.0518698 0.740895 -3.30412 -0.107455 0.182257 -0.347744
235 1 0.925638 0.0984006 0.0274065 1.31381 -3.25702 0.400913 0.124432 -0.512225
1833 1 0.902052 0.099926 0.0520937 0.969574 -3.29477 -0.252971 0.0489619 -0.132417
1753 1 0.899304 0.0489664 0.0503357 0.643524 -3.27962 -0.0377609 0.518377 0.275159
84 1 -0.00123584 0.0740769 0.0253199 0.707408 -3.29228 0.183852 0.116481 -0.63326
159 1 0.975861 0.0481342 0.0248437 0.348308 -3.23798 0.00111796 0.506907 -0.4837
160 1 0.949846 0.0725724 0.0257212 0.743048 -3.3234 -0.205271 0.184432 -0.436963
1757 1 0.950395 0.0483089 0.0473377 1.89795 -3.29381 -0.0693519 -0.0535003 0.956754
161 1 0.000903428 0.100472 -0.000937333 1.12963 -3.30138 -0.487854 -0.491866 0.372463
163 1 0.0230918 0.0976898 0.0254654 1.04704 -3.31337 0.573747 0.297001 -0.423224
168 1 0.0482275 0.125149 0.0232887 0.770746 -3.29743 -0.200373 -0.420162 0.386915
1762 1 0.0217532 0.125324 0.0487883 1.2112 -3.23003 0.86278 -0.078019 0.00970338
164 1 -0.00242157 0.123629 0.0259289 0.856698 -3.27914 0.104712 0.000254119 -0.596272
167 1 0.0738013 0.0987094 0.0270433 1.09607 -3.31458 0.220949 0.129342 -0.547584
172 1 0.0985341 0.124782 0.0244723 0.336388 -3.31769 0.264734 -0.112498 0.231026
1766 1 0.0731659 0.122675 0.0486616 0.803788 -3.31652 0.459118 0.321045 0.38323
1769 1 0.100328 0.096774 0.0496524 1.1382 -3.35295 -0.0554648 0.261572 0.430843
169 1 0.098823 0.0987366 -0.000828739 0.419366 -3.30604 -0.309883 -0.141279 0.34987
166 1 0.073891 0.122935 1.00088 0.712733 -3.25994 -0.237245 0.172291 -0.102513
171 1 0.122572 0.0987037 0.0240538 0.631548 -3.32883 0.291487 0.0981309 0.196897
176 1 0.147827 0.122694 0.0248662 0.976848 -3.35337 0.012133 0.368289 0.0549977
251 1 0.123805 0.151841 0.023362 1.54375 -3.30175 0.0452418 -0.359501 0.186411
170 1 0.12236 0.124784 -0.000310252 0.429208 -3.27774 -0.0107655 -0.159372 0.254426
173 1 0.150296 0.100615 -0.000218455 0.557723 -3.31299 -0.235331 -0.214881 0.420347
179 1 0.225107 0.0996915 0.0252689 0.335936 -3.29677 -0.304235 -0.177344 0.175243
180 1 0.201219 0.125381 0.0273121 0.908068 -3.32996 -0.0814024 -0.103837 -0.586171
259 1 0.225682 0.15043 0.0268848 0.491284 -3.29778 -0.228302 0.0145233 -0.505747
178 1 0.226433 0.125478 -0.000330603 1.12271 -3.29827 -0.634105 -0.0845274 0.533916
177 1 0.198941 0.100737 0.00135231 0.442507 -3.32836 0.281069 0.149626 -0.222144
184 1 0.247475 0.123482 0.0268767 1.30981 -3.23504 0.620377 0.31917 -0.67469
182 1 0.275455 0.124621 2.96056e-05 0.513934 -3.29744 -0.164328 -0.125197 0.501575
181 1 0.249393 0.100181 1.00019 0.269524 -3.31916 0.41928 0.104607 -0.0503162
187 1 0.322991 0.0994959 0.0252288 0.606635 -3.32529 0.483242 -0.38145 -0.211229
188 1 0.298989 0.123957 0.0261215 0.553057 -3.30076 0.00951454 0.192648 -0.230963
192 1 0.348771 0.123931 0.0259165 0.585672 -3.26423 -0.363322 -0.0836192 -0.579207
267 1 0.32463 0.148038 0.0235464 0.947147 -3.31411 -0.0664696 0.00077437 0.401787
1786 1 0.324422 0.122076 0.0495886 0.692694 -3.25021 -0.175349 0.36781 0.268735
269 1 0.350439 0.14869 -0.000916695 0.616711 -3.24852 -0.650873 0.116547 -0.269179
196 1 0.398526 0.124258 0.0249287 0.182389 -3.29632 0.201469 -0.119646 -0.233697
1790 1 0.374073 0.12348 0.0483216 0.917548 -3.26089 -0.148634 0.122325 0.770929
273 1 0.398697 0.14966 1.00183 0.710639 -3.3064 -0.35941 0.0559863 -0.704898
200 1 0.450799 0.125467 0.0247637 0.430579 -3.33567 -0.143546 0.0539945 -0.284015
275 1 0.42266 0.150327 0.0250288 0.351648 -3.25771 0.468006 -0.265724 -0.21183
204 1 0.499995 0.126022 0.0267882 0.877431 -3.2903 0.0129028 0.0129084 -0.710833
203 1 0.526144 0.0994089 0.0256785 0.534292 -3.30604 -0.243324 0.315621 -0.323249
198 1 0.476664 0.126193 -6.642e-05 0.531243 -3.36529 -0.263699 0.194387 -0.108957
202 1 0.526668 0.12339 0.000714838 0.841746 -3.35275 -0.429789 0.107748 -0.179247
281 1 0.502069 0.150292 -0.000659718 0.760056 -3.34465 -0.268085 -0.159368 0.182969
207 1 0.575251 0.10157 0.0254481 1.03001 -3.30375 -0.0795355 -0.176468 -0.485459
208 1 0.549229 0.125306 0.0266929 1.09689 -3.26127 0.422248 -0.23342 -0.275389
287 1 0.574371 0.150695 0.0232841 1.04107 -3.3284 0.0739537 -0.248089 0.419939
1806 1 0.575861 0.124172 0.0496619 0.283145 -3.33705 0.17943 0.215814 0.17871
205 1 0.550462 0.0978453 1.00026 0.87126 -3.33418 0.212926 0.280663 -0.100746
206 1 0.574722 0.126414 1.00041 0.715021 -3.32438 0.00944565 -0.469157 0.0710763
212 1 0.601491 0.126029 0.0247543 0.445331 -3.34849 -0.0874829 -0.255669 -0.0180152
1809 1 0.599072 0.0976459 0.0485783 1.41158 -3.23409 0.577347 0.842133 0.511123
210 1 0.626969 0.125934 0.000373922 0.488008 -3.31275 -0.250244 -0.0979142 0.112019
1889 1 0.601048 0.149263 0.0496332 0.368583 -3.34563 -0.0839656 -0.299914 0.333643
291 1 0.627248 0.149265 0.0266051 0.540679 -3.22252 -0.244845 -0.263484 -0.288401
289 1 0.601382 0.150951 0.000340021 0.578174 -3.30059 -0.188282 -0.40127 -0.0340385
216 1 0.65129 0.124956 0.0247243 0.358348 -3.29398 -0.0687053 -0.39316 -0.356693
220 1 0.703436 0.124374 0.0230683 0.689389 -3.29269 -0.35635 -0.0766745 0.252385
295 1 0.677111 0.147886 0.0227779 0.983299 -3.28924 -0.0645021 0.488717 0.474653
213 1 0.65069 0.100628 -0.000748143 0.48297 -3.27234 0.6571 -0.103853 0.32468
214 1 0.677587 0.124165 0.998757 0.430684 -3.35203 -0.517334 0.0336892 -0.0437151
224 1 0.750496 0.126468 0.0268543 2.29116 -3.22456 0.393052 -0.413202 -0.693706
1818 1 0.72557 0.123102 0.0495098 0.751386 -3.29806 -0.344993 -0.0931405 0.326342
299 1 0.726063 0.149636 0.0249721 0.423064 -3.27896 -0.140162 0.423741 -0.204072
218 1 0.729808 0.12509 0.999686 1.47907 -3.2636 -0.688896 0.119342 0.0129859
223 1 0.774756 0.100984 0.0214865 3.04752 -3.23899 0.0884504 0.044056 0.53186
222 1 0.777325 0.123256 0.998578 1.00832 -3.33344 -0.244674 0.542889 0.263948
227 1 0.825778 0.0994872 0.0225259 1.72092 -3.25633 0.0700514 0.268814 0.707807
1825 1 0.79851 0.100939 0.0496519 0.787521 -3.35995 0.258461 0.0639545 -0.256971
228 1 0.80103 0.123842 0.0261747 1.39679 -3.35125 0.221382 0.468346 -0.497869
232 1 0.849603 0.124153 0.0226783 1.16683 -3.29404 0.141332 -0.228421 0.681926
309 1 0.850702 0.149181 0.999187 0.525302 -3.26592 0.163238 0.191117 -0.286527
1909 1 0.851897 0.148282 0.0496678 0.899181 -3.27988 -0.049754 0.0203028 -0.116655
226 1 0.825303 0.124532 0.997371 0.754632 -3.33299 -0.136087 -0.0432698 0.434769
230 1 0.874888 0.124033 -0.000370601 0.458377 -3.23174 0.534209 -0.177626 -0.0156993
236 1 0.900959 0.121892 0.0240134 0.976002 -3.3076 0.200063 0.648882 -0.0118942
1834 1 0.926162 0.126092 0.0493039 1.18879 -3.28887 -0.23557 -0.315665 0.311654
239 1 0.971596 0.0995689 0.025735 1.74621 -3.24715 0.896256 -0.325372 0.30653
1761 1 1.00209 0.0990932 0.0510184 1.48191 -3.26114 -0.812513 -0.118971 -0.23739
240 1 0.949484 0.124295 0.025223 0.236863 -3.25431 -0.00477719 0.121961 -0.174534
1838 1 0.975152 0.124893 0.0503974 0.279359 -3.33685 -0.232915 -0.161984 0.222682
1837 1 0.949173 0.0986179 0.0512385 0.527188 -3.29629 0.3793 0.132123 0.110423
238 1 0.973467 0.123237 0.000634767 0.755211 -3.29255 0.367122 0.490235 -0.250339
243 1 0.0226411 0.150492 0.0245542 0.339297 -3.33981 0.0445472 -0.0547015 -0.263176
248 1 0.0477489 0.174988 0.02237 1.02845 -3.33393 0.468551 -0.081263 0.450355
323 1 0.0222409 0.199443 0.0259196 1.12455 -3.32733 0.218176 0.223008 -0.428131
1841 1 0.999464 0.150559 0.0497506 0.404427 -3.30151 -0.157513 -0.0498312 0.195695
1845 1 0.0480658 0.14804 0.0485458 0.595408 -3.29364 0.0496297 0.186724 0.148603
247 1 0.0729498 0.148572 0.0251846 0.51334 -3.25951 -0.0239047 0.196523 -0.0582235
252 1 0.0965921 0.174415 0.02465 1.18789 -3.29394 0.494488 0.189921 -0.247659
246 1 0.0734659 0.174791 0.998267 0.642259 -3.36226 -0.399882 0.562493 -0.0874802
327 1 0.0739325 0.200208 0.0243475 0.401679 -3.25863 0.528581 -0.617412 -0.174229
253 1 0.146783 0.147542 0.998615 1.82407 -3.27048 0.63979 0.427937 0.193938
255 1 0.173788 0.147751 0.0241915 1.27106 -3.31163 -0.204067 0.302635 0.155861
256 1 0.151122 0.175905 0.0262037 1.43594 -3.29775 -0.185495 -0.347478 -0.386602
250 1 0.126731 0.175288 -0.000207629 1.84171 -3.3003 -0.471224 -0.288483 0.274427
1854 1 0.174831 0.176089 0.0506125 0.801645 -3.3193 0.0643845 -0.440769 0.206524
260 1 0.198813 0.17427 0.0244489 0.729315 -3.31979 0.261892 0.0131334 0.318678
339 1 0.223992 0.19934 0.026382 0.93346 -3.29874 0.337433 -0.250372 -0.340238
1857 1 0.199356 0.1495 0.0503806 0.342013 -3.35768 -0.189953 0.14556 0.134274
1858 1 0.224015 0.174015 0.0526368 0.54169 -3.30603 -0.0543567 0.16244 -0.540012
263 1 0.273311 0.148624 0.0263788 0.434118 -3.3578 0.173765 0.0752262 -0.011561
1861 1 0.248059 0.14956 0.0516956 0.496096 -3.25139 0.6884 0.148168 0.0676375
264 1 0.249267 0.175413 0.0264218 0.30832 -3.34001 0.275772 -0.0532433 -0.0177721
1862 1 0.274841 0.173578 0.0514998 0.34269 -3.36198 -0.0820017 -0.00927335 -0.0906508
343 1 0.2772 0.199104 0.0260382 0.878856 -3.26359 -0.699195 -0.117143 0.0159499
1941 1 0.249167 0.198632 0.0519238 0.507349 -3.34255 0.353089 -0.0615242 -0.182229
268 1 0.299027 0.173238 0.024669 0.482234 -3.29033 0.0867845 -0.211174 0.139633
1866 1 0.321951 0.173575 0.050348 1.21294 -3.30256 0.613896 0.131237 0.0141051
272 1 0.349422 0.172578 0.0275306 1.4453 -3.28914 -0.279498 0.409209 -0.186572
1949 1 0.351579 0.199206 0.0510066 1.05076 -3.28162 -0.556245 -0.12283 -0.406369
271 1 0.372106 0.148601 0.0240151 0.879344 -3.24635 0.381777 0.0585664 0.631239
276 1 0.398597 0.173331 0.0243999 0.54109 -3.32352 -0.344126 0.504666 0.341409
351 1 0.374011 0.199265 0.025486 0.332769 -3.35754 0.0115785 -0.0114386 -0.258389
270 1 0.37183 0.176028 0.000179466 1.72257 -3.36777 0.458001 -0.198171 -0.0801173
280 1 0.44719 0.176557 0.0252123 0.96175 -3.32159 0.331218 -0.373818 -0.147234
1957 1 0.449061 0.197681 0.0501593 0.662893 -3.30628 -0.0365096 0.371726 -0.172285
1874 1 0.424161 0.173224 0.0509398 0.608539 -3.3034 -0.178881 -0.00159402 -0.245758
279 1 0.47484 0.151654 0.0237281 1.05528 -3.35056 -0.161497 -0.30507 -0.00422464
278 1 0.473037 0.175486 8.96262e-05 0.689556 -3.29076 0.529288 0.162434 0.234775
1881 1 0.501248 0.150155 0.0491723 0.606931 -3.29079 -0.444885 0.0275927 0.286155
283 1 0.527536 0.150177 0.0236553 1.13674 -3.23489 -0.755256 -0.20438 0.195737
284 1 0.50095 0.173213 0.0261108 1.44767 -3.30126 -0.277254 0.378244 -0.503835
282 1 0.525417 0.176016 0.998757 1.09999 -3.24942 -0.268412 -0.363583 0.425729
288 1 0.549388 0.174463 0.0239027 0.484727 -3.26821 0.170264 0.313512 0.483291
1886 1 0.574803 0.173869 0.0515198 0.927813 -3.30099 0.177327 0.160581 -0.694017
286 1 0.574524 0.174747 -0.000654045 0.586835 -3.29877 0.0233254 0.000197705 0.156482
292 1 0.601332 0.172384 0.0264409 0.757453 -3.33245 -0.0592915 0.503905 -0.0589777
369 1 0.600355 0.19754 1.00178 0.810341 -3.29529 0.420373 0.228636 -0.627143
371 1 0.626626 0.198621 0.0265753 0.458513 -3.24845 -0.238366 0.0234346 -0.0153974
290 1 0.625992 0.173838 1.00141 0.308388 -3.26699 -0.145871 0.429493 -0.351377
1890 1 0.6284 0.17244 0.051213 1.34776 -3.35602 -0.17232 0.209523 0.169059
1893 1 0.652162 0.145526 0.0499767 1.86343 -3.25334 -0.106255 0.641327 0.269372
296 1 0.6499 0.173559 0.0256939 0.818758 -3.23937 0.621042 0.151534 -0.168696
300 1 0.702368 0.176103 0.0227917 1.53684 -3.33777 -0.26486 -0.454254 0.523078
1894 1 0.673339 0.17271 0.0493274 1.85674 -3.34909 0.350951 0.347491 0.118689
377 1 0.700359 0.200938 1.00096 0.669566 -3.29532 0.109364 -0.328044 -0.355471
294 1 0.676384 0.175434 0.998011 1.21457 -3.26796 0.275301 -0.0378873 0.693163
304 1 0.751065 0.174705 0.0256852 0.297441 -3.29148 -0.406013 -0.189909 -0.280368
379 1 0.72655 0.200454 0.0251743 0.390016 -3.27534 0.0659021 -0.153715 0.0570226
1981 1 0.750145 0.202603 0.0501331 1.56313 -3.25225 0.316454 -0.871087 0.217932
301 1 0.752815 0.149402 0.00063552 0.464748 -3.34781 0.0980823 0.293755 -0.193758
298 1 0.726246 0.174705 0.998127 0.601618 -3.33193 -0.109198 0.0118508 0.188925
381 1 0.750109 0.199608 1.00006 0.329506 -3.33602 0.286217 -0.138639 -0.195285
303 1 0.776385 0.150353 0.0252288 0.369124 -3.29827 -0.0237098 -0.291311 -0.132208
383 1 0.774002 0.198629 0.0260384 1.11598 -3.26766 0.383785 0.565975 -0.340154
308 1 0.799645 0.174702 0.0245278 0.644073 -3.21153 0.775887 -0.117579 0.673169
302 1 0.777116 0.175426 1.00176 1.31292 -3.21549 -0.888872 -0.237847 -0.908112
311 1 0.875933 0.148449 0.0229124 0.71842 -3.35695 0.15806 -0.0703266 0.445158
307 1 0.828668 0.149924 0.0247035 1.45714 -3.29897 -1.00939 -0.247213 0.141878
387 1 0.826608 0.19866 0.0242828 0.304827 -3.35598 0.113358 0.122224 -0.112689
312 1 0.852539 0.173888 0.0252115 0.624656 -3.27872 0.287346 0.272877 -0.384252
1910 1 0.874058 0.174565 0.0511198 0.764627 -3.25738 0.378145 -0.133608 -0.269044
310 1 0.877833 0.173674 -0.00206454 1.15141 -3.3186 -0.271073 -0.0658315 0.224812
306 1 0.82502 0.172579 1.00143 1.43414 -3.27735 0.175573 0.535302 -0.401046
315 1 0.925078 0.148157 0.0233489 0.443396 -3.31926 -0.478738 -0.0349011 0.184019
316 1 0.900391 0.173171 0.0261706 0.843179 -3.33091 -0.180258 0.0245801 -0.168579
395 1 0.924908 0.1989 0.0253701 0.241717 -3.31982 0.0898155 0.0872825 0.102006
1914 1 0.925464 0.174356 0.0497856 0.210869 -3.31605 0.15105 0.141073 0.0360266
244 1 -0.00365309 0.175729 0.0234262 1.17917 -3.30869 0.71454 0.0143067 -0.190457
319 1 0.974896 0.150196 0.025104 0.536293 -3.24067 0.0643045 -0.711894 -0.400645
320 1 0.950214 0.172467 0.0238159 0.951572 -3.27371 -0.544989 0.637304 -0.313395
397 1 0.945558 0.19662 0.998247 2.45047 -3.29279 0.321861 0.592165 0.0977825
1917 1 0.950184 0.150119 0.0494787 0.274517 -3.27326 -0.232464 -0.3869 0.275783
1997 1 0.951296 0.200051 0.0487502 0.531859 -3.25772 -0.404683 -0.0818345 0.14089
241 1 0.998678 0.150875 -0.000163146 0.262505 -3.29067 0.260493 -0.0992382 0.096342
325 1 0.0459946 0.201073 1.00061 2.15876 -3.31681 0.662129 -0.205039 -0.0152401
328 1 0.0521201 0.223725 0.0258948 1.08085 -3.21419 -1.05046 0.353605 -0.401925
2005 1 0.0521597 0.250017 0.0510839 0.956412 -3.34543 -0.488837 -0.125203 0.0496022
321 1 0.999322 0.200352 0.998519 0.521145 -3.34943 -0.199223 -0.0124901 0.451897
401 1 0.999119 0.248161 0.999702 0.609732 -3.29161 -0.27232 0.554641 0.226129
1922 1 0.0258945 0.223665 0.0489163 0.984761 -3.33777 -0.334639 0.130274 0.0648078
332 1 0.101381 0.225255 0.0266644 0.83148 -3.28352 -0.191087 -0.458097 -0.0744958
407 1 0.0759732 0.248246 0.0258737 0.568182 -3.3039 -0.12823 0.402258 -0.210547
1926 1 0.0742437 0.223649 0.0503019 0.49684 -3.28937 0.253929 0.31253 0.430377
331 1 0.123627 0.198761 0.0252987 0.999899 -3.3076 0.237852 0.200205 0.0177039
336 1 0.149269 0.225994 0.0240948 1.09622 -3.31359 -0.0161163 -0.706539 0.586332
335 1 0.175783 0.198857 0.0253558 0.611073 -3.29406 0.112499 0.648622 -0.172576
334 1 0.17498 0.223864 1.00183 0.839819 -3.30444 0.38144 0.117426 -0.273692
1930 1 0.126282 0.225587 0.0521055 1.00016 -3.27624 -0.424347 -0.440068 -0.337637
1934 1 0.177342 0.225326 0.0497134 0.722957 -3.33807 -0.305448 -0.0787038 0.0257414
340 1 0.20295 0.224237 0.0240168 1.41147 -3.24368 -0.823944 0.152643 0.567983
417 1 0.200104 0.249316 0.000930243 0.381794 -3.29353 -0.14073 0.0526163 -0.136673
419 1 0.22516 0.249599 0.0244976 0.336519 -3.30884 0.671683 0.112428 0.044209
1938 1 0.228389 0.225185 0.0500666 1.44998 -3.28013 -0.789055 0.215232 -0.384587
344 1 0.251171 0.223416 0.023527 0.936542 -3.31711 -0.185659 0.171254 0.305099
2021 1 0.252063 0.251055 0.0499765 1.04674 -3.31791 0.0366342 -0.106035 0.00971742
1942 1 0.274698 0.223978 0.0508709 0.178759 -3.36905 -0.252761 0.162812 -0.0122876
423 1 0.274309 0.248533 0.0248476 0.996038 -3.28839 0.361056 -0.133321 -0.218686
347 1 0.323845 0.198309 0.0275738 0.948774 -3.32865 0.252635 -0.147439 -0.240852
348 1 0.300971 0.222797 0.0254635 0.717784 -3.31924 -0.150932 0.726321 0.354804
427 1 0.325674 0.249289 0.0258786 0.742454 -3.22745 -0.906875 -0.0113415 0.223123
2025 1 0.298773 0.249939 0.0494752 1.05835 -3.33547 -0.0127595 -0.779376 0.23585
352 1 0.347062 0.224327 0.024586 1.27089 -3.26654 0.574328 -0.618973 0.526719
349 1 0.346219 0.19894 0.000905185 1.19726 -3.31629 0.262788 0.134577 0.0389263
350 1 0.373 0.225272 1.00114 0.461436 -3.29659 0.052627 -0.477696 -0.290921
356 1 0.398087 0.224374 0.0254694 0.358688 -3.22076 0.268159 -0.447005 -0.0410043
431 1 0.375315 0.248136 0.0247924 0.836612 -3.28389 -0.297313 0.644637 0.225644
1953 1 0.400242 0.19841 0.049583 0.478111 -3.32337 -0.49915 -0.0702492 0.388274
353 1 0.399359 0.202568 -0.00177475 2.23065 -3.26218 -0.376077 -0.947165 0.517096
355 1 0.422672 0.200113 0.0252123 0.424883 -3.29363 0.0887758 0.0870556 -0.291544
357 1 0.450106 0.20133 0.000730595 0.856476 -3.32765 -0.328271 -0.38851 -0.08166
435 1 0.422613 0.247033 0.0242202 1.26903 -3.33323 0.387682 0.494945 0.22612
1954 1 0.42288 0.223688 0.0513376 0.469418 -3.29956 0.0888117 0.0202099 -0.320657
360 1 0.449451 0.224046 0.0256679 0.343054 -3.33006 -0.0543616 -0.0852429 0.0200068
354 1 0.42407 0.2246 0.999789 0.342199 -3.28897 0.53593 0.357811 0.199945
359 1 0.475839 0.199675 0.0250636 1.13753 -3.27075 -0.578679 -0.258054 -0.334217
363 1 0.521477 0.200213 0.0259098 1.93066 -3.34215 0.406032 -0.0537449 -0.0625174
1958 1 0.47348 0.223147 0.0518242 1.08428 -3.28183 -0.195733 0.601132 -0.39517
364 1 0.497738 0.225382 0.0241789 0.883241 -3.32948 0.216467 0.0238173 -0.0121518