ITEM: TIMESTEP
20000
ITEM: NUMBER OF ATOMS
32000
ITEM: BOX BOUNDS pp pp pp
7.9878844415171599e+00 7.3012115558482890e+01
-4.1436544795326640e+00 8.5143654479532472e+01
-5.9302584194970862e+00 8.6930258419496255e+01
ITEM: ATOMS id type xs ys zs c_csym c_peratom fx fy fz
4 1 0.997165 0.0303389 0.0263189 2.32594 -3.27601 0.178626 -0.361057 0.000624978
8 1 0.0399303 0.0247864 0.0246316 0.965178 -3.28149 0.0943532 -0.0481372 -0.604794
3 1 0.015222 0.998512 0.0199062 0.837423 -3.34478 -0.125522 0.185399 0.238927
12 1 0.0825873 0.0204681 0.0195877 0.684541 -3.33912 0.300003 0.179185 0.618224
16 1 0.126316 0.0171007 0.017481 0.51957 -3.32608 0.014855 -0.00954394 -0.252367
1609 1 0.0849985 0.996983 0.0430205 0.756571 -3.36249 -0.0321518 -0.150574 -0.270052
1614 1 0.154411 0.0187488 0.0407191 0.379438 -3.27881 0.114543 0.252321 0.111169
95 1 0.153429 0.0438291 0.0189769 0.938738 -3.30192 0.470686 -0.831068 -0.16659
20 1 0.168728 0.0117166 0.0136574 0.483808 -3.32476 -0.0249213 -0.152185 -0.376915
99 1 0.196109 0.0366991 0.0129687 1.72556 -3.25798 -0.344854 0.811405 0.17011
1697 1 0.183889 0.0438097 0.0434033 2.33281 -3.31841 -0.391449 0.342172 -0.323421
24 1 0.212675 0.0102539 0.0108252 8.26408 -3.2281 -0.00378757 -1.0005 -0.787055
1618 1 0.197092 0.0147476 0.0372858 4.40828 -3.24325 -0.338105 -0.120242 0.275414
1701 1 0.223324 0.0442234 0.0340449 6.07532 -3.24 0.334964 0.146811 0.500211
1622 1 0.236751 0.00908132 0.0346375 8.60115 -3.25296 0.398888 -0.0860846 -0.172582
103 1 0.239365 0.0343161 0.00954604 8.37237 -3.27254 -0.168091 -0.0899493 -0.0489178
1705 1 0.265251 0.0346925 0.0375988 3.22028 -3.33415 -0.789284 0.087644 -0.47217
28 1 0.269323 0.0132269 0.0143277 0.336659 -3.3321 -0.0269622 -0.12221 0.118199
1626 1 0.295891 0.0136757 0.0391246 0.175383 -3.31919 0.181998 0.0111449 -0.388483
1709 1 0.296346 0.0375064 0.0155966 0.382535 -3.34652 0.415809 0.0589862 0.203552
1630 1 0.331653 0.017561 0.0183993 0.913753 -3.29605 -0.649921 0.185628 0.18968
1711 1 0.323418 0.0388979 0.0407775 0.193439 -3.34895 -0.0241105 -0.197125 -0.0544619
1713 1 0.356004 0.0414053 0.0202265 0.361186 -3.24821 -0.25037 -0.225882 -0.00767488
1634 1 0.388793 0.0195293 0.0220351 0.323876 -3.36592 -0.0124973 -0.0351907 0.22558
1636 1 0.357794 0.0166812 0.0442287 1.35342 -3.34006 -0.209786 0.367593 -0.202808
1715 1 0.38394 0.0426441 0.042648 1.03073 -3.31485 0.0160669 -0.266456 0.535907
40 1 0.421156 0.0238496 0.00349527 0.81312 -3.31096 -0.0182568 -0.504577 -0.405494
1717 1 0.416599 0.0459916 0.0247421 0.925944 -3.31466 -0.188082 -0.221209 -0.139071
1638 1 0.448278 0.0224941 0.025336 0.742615 -3.27934 0.0864963 0.522812 0.529172
119 1 0.448695 0.0478155 0.00511741 0.415782 -3.26026 0.170252 -0.263304 -0.250765
1637 1 0.421851 0.997549 0.025298 0.302847 -3.31297 -0.082088 0.0730499 -0.322188
39 1 0.453699 0.000889599 0.00577055 0.409418 -3.34972 0.146203 -0.251243 -0.54571
44 1 0.482058 0.0251472 0.00599839 0.745631 -3.29428 0.0376198 0.240997 0.31899
1641 1 0.479825 0.00228264 0.029013 6.91754 -3.33302 0.373347 -0.0902264 0.0847766
1642 1 0.506747 0.0273229 0.0319184 7.30049 -3.30079 0.0267183 0.111781 -0.397316
43 1 0.513315 0.00453813 0.00904339 0.280953 -3.3235 0.167437 0.0785958 0.311584
48 1 0.538707 0.0324147 0.011556 0.936827 -3.33073 -0.0174651 -0.265059 -0.166335
1645 1 0.53816 0.00628513 0.0336817 6.99494 -3.29413 -0.0650852 0.05207 -0.203922
47 1 0.571057 0.00981884 0.0134116 0.264501 -3.36602 -0.00516359 -0.180442 0.0414206
1646 1 0.564157 0.0316743 0.0354465 0.260689 -3.32676 0.400921 0.206477 -0.00522559
52 1 0.598425 0.0347912 0.0152266 0.279324 -3.35823 0.0964335 -0.0886343 0.278799
1649 1 0.597205 0.00987855 0.0377306 0.274362 -3.32978 0.0220253 0.466619 0.0489417
1650 1 0.623945 0.0352671 0.0408522 0.332393 -3.33932 -0.0360451 -0.274877 -0.209275
51 1 0.631565 0.0113866 0.016628 1.08975 -3.29449 -0.423019 0.238537 0.558437
56 1 0.655245 0.036783 0.02039 0.684597 -3.33666 0.12785 0.225209 -0.138383
1653 1 0.656733 0.0134069 0.0437211 0.611861 -3.36557 -0.23275 -0.0504206 -0.197074
55 1 0.689742 0.017828 0.02321 0.34611 -3.2983 -0.166465 -0.268406 -0.503447
54 1 0.689889 0.0398732 0.000248248 0.520692 -3.35384 -0.168368 0.0259025 -0.208312
60 1 0.716302 0.0432159 0.0245156 0.446114 -3.23631 -0.294985 -0.676134 -0.218084
57 1 0.723385 0.0208212 0.00121064 0.611478 -3.35225 -0.0622015 -0.227319 -0.18822
59 1 0.749635 0.0238149 0.0249458 1.22188 -3.31685 0.264608 -0.112995 0.36008
61 1 0.778697 0.0243394 0.00410656 1.85799 -3.30228 0.289067 0.0776451 0.52596
1578 1 0.755621 0.998706 0.00372241 1.28962 -3.28031 -0.134219 0.345242 -0.270124
1584 1 0.781094 0.000439763 0.0290086 0.499852 -3.32748 0.216964 0.291638 -0.00253587
63 1 0.805788 0.0273853 0.0299657 2.72989 -3.32036 0.485144 -0.676965 0.130359
1582 1 0.814221 0.00358956 0.00837156 0.441506 -3.33514 -0.124473 0.324935 0.166493
65 1 0.841791 0.028545 0.0106087 0.74314 -3.35419 -0.158161 -0.0470493 0.268223
1588 1 0.843035 0.00631189 0.0330348 8.00215 -3.32517 -0.833477 -0.432252 0.320938
67 1 0.87128 0.0281441 0.0382538 6.72896 -3.28809 0.342657 0.0165044 -0.325083
1586 1 0.872793 0.00492891 0.0135297 7.28234 -3.25599 0.594911 0.288409 0.309703
69 1 0.90139 0.0312214 0.0171952 6.19917 -3.30506 0.0522104 0.234072 0.458219
1590 1 0.915257 0.00208598 0.0225362 5.71211 -3.23775 -0.304477 -0.15589 0.0572178
73 1 0.945953 0.0262736 0.0239189 2.97207 -3.19099 -0.49828 0.522063 0.476176
78 1 0.9737 0.0269348 0.00161244 3.2862 -3.275 -0.229338 0.320706 -0.205631
79 1 0.972906 0.00547685 0.0238892 4.2175 -3.2237 0.678684 -0.460909 0.186286
85 1 0.044381 0.0464265 -0.00112604 1.96501 -3.35903 -0.344305 0.081334 0.517637
83 1 0.0239875 0.0547877 0.0260792 2.67694 -3.21149 0.493369 -0.385244 0.428338
81 1 0.997716 0.0531461 0.00346414 2.80356 -3.27993 0.637513 -0.000291838 -0.14136
82 1 0.028942 0.0768008 0.00611901 2.78086 -3.30739 -0.273087 0.236809 -0.208303
88 1 0.0543624 0.0812929 0.0320339 4.04583 -3.26509 0.421812 -0.718737 0.469731
157 1 1.0012 0.077804 0.0305862 3.99082 -3.1888 -0.64055 0.0969783 -0.0543428
89 1 0.0862758 0.0443811 0.996613 0.874892 -3.29521 -0.243638 -0.369296 0.229733
91 1 0.111449 0.0469281 0.0212541 0.749029 -3.3134 -0.532052 -0.175493 0.405168
87 1 0.0657017 0.0508006 0.0271209 1.60086 -3.36038 0.517484 -0.0945523 -0.176194
92 1 0.0967741 0.0756246 0.0298632 0.295148 -3.35902 -0.0223434 0.126333 -0.276072
86 1 0.0718855 0.072802 0.00331491 0.527706 -3.26739 -0.162241 -0.0651225 0.644001
90 1 0.114539 0.0696086 -0.000145034 0.435678 -3.30437 -0.135896 0.489836 0.40231
96 1 0.140295 0.0705013 0.0257622 0.755107 -3.23919 -0.99036 0.693407 -0.150915
100 1 0.180141 0.0685762 0.0195971 0.798626 -3.2517 0.788168 -0.380227 -0.158735
104 1 0.22463 0.0679431 0.0149703 2.57872 -3.26297 -0.581518 -0.109754 -0.24713
183 1 0.247509 0.0946646 0.016112 2.63096 -3.2401 0.362712 0.155782 0.241843
1706 1 0.26496 0.0580466 0.0131037 6.00388 -3.23198 -0.144392 0.14769 0.403342
1698 1 0.205418 0.071795 0.0435713 1.25342 -3.33678 0.668694 0.318412 0.0408438
1702 1 0.248894 0.0711457 0.0376978 3.12509 -3.31752 0.419659 -0.100059 0.62
1712 1 0.290325 0.0598641 0.03847 2.19577 -3.33338 -0.360599 0.22538 -0.204854
1789 1 0.292554 0.0868423 0.0153199 7.62558 -3.26882 -0.522753 -0.389756 -0.217907
1710 1 0.322915 0.0636651 0.0189465 0.631374 -3.30919 -0.0317765 -0.450355 -0.242502
1791 1 0.317154 0.0855409 0.0403742 5.30731 -3.26125 -0.306336 -0.255039 -0.168389
1793 1 0.349013 0.0880307 0.0189991 0.725713 -3.29061 0.462624 -0.22687 0.302714
1716 1 0.350584 0.0627193 0.0415208 0.981388 -3.31625 -0.104757 0.383816 0.356441
1714 1 0.381301 0.0649125 0.0201729 1.66652 -3.27571 0.579346 0.767365 0.720769
1795 1 0.375352 0.0875211 0.0469409 2.15907 -3.30298 -0.135272 0.199018 -0.731297
120 1 0.418062 0.0685266 0.00255391 1.04916 -3.26605 -1.05955 -0.00196948 -0.0309809
1797 1 0.406233 0.0916628 0.0244817 1.26531 -3.3746 0.203939 -0.2771 0.164087
1718 1 0.4421 0.0713698 0.025705 0.607221 -3.28392 -0.0894558 -0.135795 0.366306
1799 1 0.436605 0.0920388 0.0487244 0.412199 -3.30645 -0.552473 0.318855 0.0321212
1721 1 0.474548 0.0494521 0.027113 0.732759 -3.31464 -0.125992 -0.487549 0.483642
124 1 0.475036 0.0738628 0.00523995 0.875443 -3.26861 0.255624 -0.254142 0.478905
123 1 0.505378 0.0510088 0.0076213 0.598872 -3.35855 0.20713 0.143194 -0.00967171
1722 1 0.499007 0.072775 0.0318414 1.37047 -3.32361 0.474957 0.393232 -0.266746
1725 1 0.53448 0.0540713 0.0338139 0.956117 -3.32701 -0.600888 -0.10294 -0.539001
128 1 0.531743 0.0766413 0.0100377 0.276638 -3.32982 0.160922 -0.174825 0.0659208
1726 1 0.559287 0.0802025 0.0334785 0.773376 -3.254 0.167658 -0.712983 -0.0569707
127 1 0.566339 0.0568305 0.0123967 0.311669 -3.33976 -0.193481 -0.336168 0.123788
132 1 0.591534 0.0804042 0.0133806 0.347986 -3.2611 -0.0936397 0.139371 0.0539387
1729 1 0.592888 0.0579373 0.0380938 0.711742 -3.35407 -0.350621 -0.361673 -0.370502
1730 1 0.617996 0.0826827 0.037401 0.772384 -3.25394 0.365556 -0.351195 0.444374
131 1 0.624152 0.0601659 0.0166953 0.499911 -3.30524 0.0721807 -0.504749 0.0242635
136 1 0.65081 0.0839953 0.0199327 0.368944 -3.33395 0.533396 0.00292947 -0.167323
1733 1 0.651064 0.0599833 0.0421624 0.302982 -3.36647 0.128806 0.184572 -0.255588
135 1 0.683914 0.0620901 0.0214529 0.266897 -3.34809 -0.315865 0.261466 0.126902
134 1 0.68244 0.0855225 0.998189 0.843173 -3.321 -0.138725 0.236411 0.581179
140 1 0.711181 0.0870063 0.0239343 0.394439 -3.30982 0.0475315 0.0848694 -0.170982
137 1 0.716655 0.0663936 0.000962997 0.491541 -3.28479 -0.427748 0.0345246 0.173814
58 1 0.746833 0.0458697 0.00222396 1.28906 -3.26564 0.41038 -0.250369 0.354394
64 1 0.776171 0.0483552 0.0293808 0.945067 -3.30245 -0.141152 -0.0736519 0.0506177
139 1 0.741589 0.0652521 0.0247237 1.94365 -3.25318 0.605861 0.77619 0.512829
138 1 0.744557 0.0902089 0.00401267 0.288788 -3.34933 -0.325756 0.317123 0.101954
144 1 0.770614 0.0906959 0.028582 0.650746 -3.30507 0.049118 0.359718 -0.156052
141 1 0.777032 0.0699731 0.0074652 0.373028 -3.32535 -0.00326154 0.0493963 -0.114757
62 1 0.808203 0.04891 0.00930824 0.325542 -3.35072 0.376591 0.181793 0.104405
143 1 0.803816 0.0723389 0.0324979 0.859792 -3.27534 0.0390887 -0.715698 -0.372001
68 1 0.838658 0.0479078 0.0348904 1.31588 -3.31449 -0.555558 0.0376418 -0.167078
145 1 0.837328 0.0736612 0.0135518 0.6051 -3.3278 0.0331712 -0.527118 -0.465736
66 1 0.869751 0.0517799 0.0137333 0.62466 -3.29488 -0.126068 0.340577 0.562486
147 1 0.864399 0.0724889 0.0365031 0.757744 -3.2941 0.167669 0.272531 0.0196573
72 1 0.898951 0.0537595 0.0405645 6.78632 -3.31366 0.148897 -0.656755 -0.53439
149 1 0.898337 0.0769944 0.0175539 0.413116 -3.33475 0.192405 0.198531 0.261729
151 1 0.927431 0.0784118 0.0417149 7.14016 -3.24908 -0.450991 -0.142915 0.316221
70 1 0.930292 0.0551733 0.020735 6.65707 -3.36173 -0.0144535 0.0401049 -0.295103
74 1 0.972571 0.0539974 0.0287844 4.58367 -3.26726 -0.0149331 -0.0362029 0.0110137
153 1 0.954408 0.0820131 0.0224751 5.8354 -3.1934 0.92801 -0.152201 -0.308369
30555 1 0.986196 0.0852325 0.00347428 9.41528 -3.30049 0.329348 -0.245414 -0.262074
30476 1 0.959709 0.0609184 0.999793 9.20676 -3.28711 -0.42927 -0.230915 0.152439
158 1 0.0258293 0.10102 0.0321341 5.55834 -3.14473 -0.175298 0.527026 0.37959
30560 1 0.0129776 0.110042 0.00517248 9.87759 -3.23163 0.410531 -0.513237 -0.689766
161 1 0.0513505 0.125863 0.0356299 5.35503 -3.2448 0.4427 0.0117471 0.151038
30639 1 0.0441314 0.133523 0.00645258 12.087 -3.29713 0.201234 -0.00649956 0.418958
237 1 0.011525 0.129884 0.025528 6.10577 -3.2675 -0.180149 0.729507 0.489131
165 1 0.0547335 0.101468 0.010386 7.61907 -3.27545 0.235229 0.67333 -0.169273
167 1 0.086613 0.105881 0.0380027 7.2183 -3.23233 -1.15491 -0.299929 -0.216112
166 1 0.083841 0.128474 0.0174046 8.89491 -3.21056 -0.347316 -0.300114 0.424855
169 1 0.0976038 0.0995766 0.00806877 1.5999 -3.3555 0.264808 -0.117078 -0.232008
172 1 0.110193 0.130841 0.0419489 4.97165 -3.21273 0.285422 -0.727474 -0.00134452
171 1 0.125868 0.101346 0.0338579 0.34175 -3.23761 0.295903 -0.564133 0.0241799
176 1 0.126967 0.122846 0.0141812 10.7777 -3.27268 0.399149 0.37802 -0.324533
173 1 0.142235 0.095192 0.00421915 5.04938 -3.33507 -0.740648 -0.0655105 0.143602
175 1 0.167098 0.095181 0.0289127 7.34273 -3.21339 -0.438435 0.771771 0.147716
180 1 0.171963 0.14201 0.0180601 8.06262 -3.06948 0.236031 -1.12764 -0.222858
1774 1 0.153677 0.126261 0.0379034 6.46988 -3.27291 -0.623563 -0.286964 -0.0585011
1778 1 0.196444 0.122555 0.0318022 6.96625 -3.19846 -0.474402 0.218534 0.217865
179 1 0.205141 0.0967274 0.0209904 1.82335 -3.24105 0.844254 -0.546295 0.0101752
1782 1 0.23641 0.123048 0.024116 1.81813 -3.27098 -0.261835 0.327919 -0.194886
1786 1 0.2776 0.119252 0.0194109 1.11629 -3.26709 -0.264093 -0.00205075 -0.398333
1869 1 0.301148 0.144057 0.0221443 1.01048 -3.24074 0.245534 0.186127 -0.0681851
1790 1 0.318331 0.109705 0.0164729 6.65367 -3.26706 0.0423249 0.306434 0.0756957
1785 1 0.276587 0.0972167 0.039663 2.45003 -3.27784 -0.00972844 -0.103724 0.535365
1792 1 0.302508 0.122877 0.0433767 2.18321 -3.28213 0.373492 -0.268719 0.131676
1873 1 0.34203 0.13612 0.0186486 8.51924 -3.29052 0.256211 -0.435322 -0.0372868
1794 1 0.373696 0.113033 0.0223157 0.987201 -3.30946 0.281073 -0.00204376 -0.48167
1796 1 0.34222 0.109796 0.0415622 2.29028 -3.28249 -0.215396 -0.0648662 0.144754
1875 1 0.368759 0.132467 0.0450747 1.2773 -3.27648 0.0494548 0.678531 -0.217006
199 1 0.442757 0.0938346 0.0045381 0.458305 -3.3138 -0.202261 0.10003 -0.146977
200 1 0.409588 0.114244 0.00160259 0.535203 -3.32928 -0.407791 0.167744 0.161274
1877 1 0.402538 0.138475 0.0225536 0.6554 -3.35177 0.30704 -0.260113 0.12948
1798 1 0.434364 0.115407 0.0262956 0.516845 -3.32201 0.146767 0.154211 0.047264
279 1 0.436776 0.138831 0.00128615 0.885926 -3.29876 -0.523008 -0.0327649 0.396823
1800 1 0.402564 0.114716 0.0460349 1.24506 -3.29042 -0.204308 -0.649682 0.131666
1801 1 0.468002 0.0950413 0.030364 1.22587 -3.3322 0.331547 0.156304 -0.576279
204 1 0.467942 0.117859 0.00582744 0.296699 -3.33127 0.0438573 0.129161 -0.119832
1881 1 0.45893 0.140647 0.0277213 1.2714 -3.34432 0.0993018 -0.060637 -0.225691
1802 1 0.493656 0.119978 0.029346 0.515825 -3.34104 0.179639 -0.17757 0.0361706
203 1 0.501082 0.096968 0.00720918 0.339308 -3.29655 -0.257337 0.0493228 0.40455
1805 1 0.52652 0.0984829 0.0319811 0.465327 -3.3282 -0.317416 0.39957 -0.233106
208 1 0.526881 0.121251 0.00809976 0.679683 -3.28917 0.409769 0.337843 0.5269
1806 1 0.553238 0.126218 0.0315548 1.77136 -3.28802 0.536364 -0.886794 0.460739
207 1 0.559852 0.1016 0.0117519 0.332354 -3.363 -0.103454 0.166079 -0.258012
1809 1 0.587683 0.101802 0.0358051 0.99336 -3.25411 -0.559242 0.813239 0.0363572
212 1 0.587006 0.12638 0.0135177 0.21134 -3.36085 -0.171469 0.0314248 -0.306597
211 1 0.618657 0.105924 0.0161759 0.306429 -3.31594 0.28154 0.109932 -0.159563
1810 1 0.612285 0.126478 0.0384693 0.798742 -3.33578 0.284517 0.649005 -0.039666
1813 1 0.645562 0.107712 0.0414127 0.389843 -3.32821 0.195756 -0.378898 -0.273141
216 1 0.648843 0.130787 0.0196256 1.04053 -3.29962 -0.484104 -0.279675 0.356917
215 1 0.679847 0.107229 0.0227958 1.36794 -3.31171 -0.393473 0.48442 -0.402119
1814 1 0.674177 0.131588 0.0443479 0.451826 -3.29721 -0.25965 -0.0249266 -0.491532
220 1 0.704753 0.133468 0.023384 0.701753 -3.34264 -0.305518 0.341721 0.0849788
217 1 0.709083 0.110497 0.00181779 0.635638 -3.35992 0.301608 0.295182 -0.0355595
219 1 0.736216 0.11314 0.0258273 0.436227 -3.32749 0.271409 -0.259671 -0.396784
218 1 0.735825 0.13697 0.00345614 1.09236 -3.30681 0.697207 -0.656608 -0.228267
224 1 0.763545 0.137294 0.0273711 0.860591 -3.29206 0.73722 -0.021666 -0.161123
221 1 0.771407 0.114016 0.00628071 0.395649 -3.37244 -0.115404 0.324868 0.139437
142 1 0.806173 0.0944528 0.00871317 0.611248 -3.30715 -0.49557 -0.0639001 0.127191
148 1 0.832413 0.093949 0.0342974 0.581099 -3.29432 0.0856076 0.695647 0.113292
223 1 0.799739 0.114316 0.0311631 1.32417 -3.33662 -0.161041 0.333929 0.0553343
225 1 0.832458 0.118822 0.011967 0.491458 -3.31739 0.390686 0.125279 0.301563
227 1 0.861284 0.119466 0.0365586 0.709559 -3.3352 -0.476306 0.376089 0.227262
146 1 0.867549 0.0975444 0.0159615 0.998463 -3.33263 -0.323887 0.0786664 -0.170062
152 1 0.895139 0.100391 0.0392121 1.11942 -3.33567 -0.160346 -0.214335 -0.101413
150 1 0.92659 0.103354 0.0186564 0.813397 -3.26908 -0.935 0.330487 0.560339
229 1 0.891206 0.1238 0.0174472 0.885877 -3.24703 0.510688 -0.242948 -0.016623
231 1 0.918786 0.125506 0.0426625 0.82464 -3.31965 0.201958 -0.197019 -0.542934
156 1 0.952577 0.105279 0.0438407 7.30961 -3.3542 0.0193518 -0.291631 0.138705
154 1 0.982634 0.106555 0.0240965 5.90915 -3.27462 0.22222 0.0620028 0.368757
233 1 0.954185 0.128446 0.020714 1.09865 -3.30657 -0.60581 0.260955 0.468915
30556 1 0.956241 0.106316 1.00027 0.420035 -3.20991 0.17056 0.386456 -0.471698
30635 1 0.984244 0.132393 1.00119 0.971021 -3.20822 -0.0435611 -0.489735 0.0923031
238 1 0.0408831 0.15619 0.0277869 7.08231 -3.34409 0.275621 0.0217946 -0.0117396
30640 1 0.011969 0.155369 0.00499586 0.359062 -3.25564 -0.058211 0.246451 0.124381
30719 1 0.0421354 0.180033 0.0068897 0.829975 -3.28472 -0.146989 0.313061 -0.038038
317 1 0.00952622 0.178874 0.0261844 0.886025 -3.31772 -0.104417 -0.316953 0.0887353
241 1 0.06848 0.181321 0.0291486 6.32917 -3.24334 -0.416952 0.0778041 0.468323
162 1 0.0821631 0.151525 0.0399453 4.02103 -3.23198 -0.589221 0.135997 -0.178563
30564 1 0.0768223 0.158901 0.00865717 9.07907 -3.32256 -0.74666 -0.0342916 -0.316197
245 1 0.0998747 0.184105 0.0100161 9.25329 -3.24386 -0.0563855 0.102933 -0.069677
247 1 0.104851 0.177469 0.0428514 6.18877 -3.20415 0.961238 0.00940885 -0.153248
249 1 0.113382 0.154237 0.0213584 11.546 -3.23358 0.134773 -0.0486671 -0.644681
251 1 0.133511 0.154274 0.0459037 7.58282 -3.21551 0.204809 -0.00184276 0.421656
250 1 0.133846 0.19298 0.027412 7.88097 -3.03104 -0.124948 -0.303757 -0.199859
255 1 0.152426 0.166465 0.0218973 6.00724 -3.15713 -0.000403513 0.355662 -0.00507612
260 1 0.174561 0.191917 0.0289842 11.2642 -3.08609 0.142775 0.07197 -0.917955
1857 1 0.177092 0.155617 0.0425694 7.75375 -3.14284 -0.365995 -0.0774137 0.514189
259 1 0.198975 0.167643 0.0215427 8.39908 -3.14023 -0.237954 -0.0421722 -1.13898
264 1 0.2207 0.17746 0.999691 7.06899 -3.23248 0.100429 -0.278262 -0.340251
1861 1 0.218123 0.148403 0.0364964 8.27017 -3.19587 0.51433 -0.0825232 -0.210157
1858 1 0.201678 0.181729 0.0452952 8.84229 -3.09346 0.437911 -0.0056752 0.637924
1865 1 0.260535 0.150218 0.0253237 1.54412 -3.30616 -0.624298 -0.418918 0.143594
268 1 0.26002 0.170779 0.00214075 0.727582 -3.30827 0.380216 0.117014 -0.212045
1862 1 0.242055 0.178493 0.0307492 5.62201 -3.36295 -0.234608 -0.274417 0.0863114
1866 1 0.286199 0.173611 0.0279308 0.518041 -3.31572 0.337728 -0.219734 -0.0405454
1870 1 0.330784 0.167814 0.0217399 1.46073 -3.28652 -0.371504 0.0624406 0.372997
1871 1 0.329322 0.147355 0.0444889 2.36721 -3.31396 0.225421 0.12015 0.17801
1874 1 0.370999 0.157971 0.0198902 6.44666 -3.24919 0.317289 0.336644 0.395161
1953 1 0.353571 0.19213 0.026356 1.88401 -3.2423 0.941955 0.43333 -0.274105
280 1 0.404354 0.159723 0.997758 1.68215 -3.30708 -0.155703 0.286331 0.453301
1957 1 0.400027 0.186316 0.022235 7.36121 -3.27444 -0.421301 -0.286075 -0.219926
359 1 0.43046 0.186101 0.00144312 0.288316 -3.32121 0.202452 -0.189693 0.00537353
1878 1 0.428978 0.164523 0.0243673 1.18503 -3.24471 -0.22998 -0.820595 -0.110619
1961 1 0.456142 0.185832 0.0273612 0.669763 -3.26348 -0.00969389 0.672015 0.0766036
1880 1 0.397082 0.161886 0.0444599 7.61184 -3.33937 -0.177222 -0.282191 -0.0478625
283 1 0.495628 0.142831 0.00862464 0.803343 -3.32788 -0.485884 -0.240223 -0.338913
284 1 0.46106 0.162927 0.00382704 0.517945 -3.29108 0.173803 0.252551 0.213235
1882 1 0.486 0.163889 0.0303837 1.41456 -3.27274 0.837787 0.334448 -0.47466
363 1 0.486487 0.187875 0.00715082 0.892619 -3.33108 0.383194 0.0490625 -0.377495
1885 1 0.521485 0.14421 0.0319289 0.469251 -3.29616 -0.173932 0.672817 -0.0293622
288 1 0.520377 0.16741 0.0102903 0.342596 -3.28002 -0.121289 0.161199 -0.113541
287 1 0.553489 0.148342 0.0119036 0.472941 -3.27737 0.026305 -0.389485 -0.357057
1886 1 0.547155 0.171571 0.0337889 1.01809 -3.29749 0.307985 -0.512579 0.278109
1889 1 0.580904 0.149402 0.0351077 0.310679 -3.30883 0.249894 0.0458725 0.185251
292 1 0.579868 0.171202 0.01393 0.752555 -3.30641 0.700921 0.368561 0.134692
291 1 0.61396 0.149974 0.0155463 0.643203 -3.3453 -0.160043 0.373538 0.174357
1890 1 0.608284 0.173653 0.0383275 0.212858 -3.3409 -0.186046 -0.0160997 -0.360856
1893 1 0.639993 0.15227 0.0403973 0.617004 -3.35738 -0.000313978 0.00159866 0.102788
296 1 0.641075 0.176638 0.0179534 0.4866 -3.31577 -0.166117 0.13445 0.460816
295 1 0.675041 0.159203 0.0235873 3.46767 -3.24247 -0.0709005 -1.47888 -0.898231
1894 1 0.668788 0.179434 0.0421226 0.739745 -3.27692 -0.556778 0.372549 0.708584
300 1 0.702266 0.181479 0.0233296 0.533332 -3.26935 0.185378 -0.146934 0.432883
297 1 0.70703 0.158072 0.99976 1.38358 -3.29077 -0.523519 0.0680772 0.507758
299 1 0.732913 0.157325 0.0250471 0.999827 -3.28636 -0.36195 0.693209 0.0843787
298 1 0.733251 0.180896 0.00471883 1.16272 -3.35064 0.625555 0.37939 -0.428018
304 1 0.762887 0.184832 0.027841 0.897521 -3.33085 -0.528001 0.129507 -0.438829
303 1 0.794198 0.164041 0.0289376 1.20732 -3.34316 0.211846 -0.516729 0.077547
302 1 0.796794 0.188501 0.00908168 1.48856 -3.38758 -0.0017582 -0.31793 -0.112226
301 1 0.767256 0.160027 0.00586545 0.728617 -3.34632 0.098388 0.364935 0.16735
222 1 0.800397 0.137851 0.0111147 2.6315 -3.32278 -0.319003 0.577529 -0.109243
226 1 0.863098 0.145099 0.0162831 2.10001 -3.22316 -0.795896 -0.044736 -1.10352
228 1 0.829269 0.143689 0.0331638 1.31964 -3.31972 -0.214097 -0.368138 0.0957991
305 1 0.830197 0.165018 0.0101746 1.54245 -3.31963 -0.728649 -0.0205633 0.490649
307 1 0.856719 0.167408 0.0373045 0.778567 -3.21754 -0.534119 -0.0172521 0.0491689
232 1 0.886706 0.146926 0.0382518 0.961008 -3.19193 0.540583 -0.495782 0.993621
230 1 0.919777 0.147334 0.0187708 0.9376 -3.37144 0.0169721 0.55059 0.178438
309 1 0.887293 0.169819 0.0184457 1.01506 -3.30292 0.301741 0.274565 -1.00041
311 1 0.914988 0.169983 0.0418855 0.484494 -3.26914 0.088433 0.422222 -0.0167165
236 1 0.945279 0.150979 0.0441678 1.19283 -3.28917 0.627628 -0.302398 -0.206097
234 1 0.980171 0.154146 0.0235533 0.74067 -3.34478 -0.0871572 -0.0590222 0.449132
313 1 0.946745 0.174502 0.0214279 0.521299 -3.36138 -0.0624229 -0.397332 0.0916537
30636 1 0.953572 0.150505 -0.000784723 0.813235 -3.25595 -0.665779 0.50726 0.228442
30715 1 0.978911 0.176663 0.00256756 0.533272 -3.34385 0.348703 0.059632 -0.459977
242 1 0.0698173 0.206017 0.00886299 1.88841 -3.34589 -0.558988 0.244308 -0.196765
318 1 0.0343621 0.204922 0.027856 1.17314 -3.32149 0.0483264 -0.508984 0.181214
323 1 0.0607969 0.22725 0.0319769 1.38486 -3.26368 0.534994 0.125118 -0.127586
321 1 0.0328739 0.226628 0.00564552 0.802025 -3.31792 0.386133 0.403984 0.419325
30720 1 0.00771 0.202253 0.00399275 0.306557 -3.30763 -0.0649055 -0.405585 -0.0631912
397 1 0.00218849 0.225417 0.0272793 0.908786 -3.32465 0.0524845 -0.300678 -0.278456
248 1 0.097122 0.204738 0.0319823 6.9644 -3.2604 -0.635626 0.934634 0.482825
246 1 0.121728 0.216106 0.0103926 9.57931 -3.27809 0.33469 -0.62809 0.0160916
325 1 0.089855 0.233708 0.00993733 1.97874 -3.28173 0.0396939 0.260952 0.113465
327 1 0.123578 0.234282 0.0394273 9.93779 -3.25879 -0.631304 0.190707 -0.40641
331 1 0.156374 0.218307 0.0317244 8.88355 -3.02625 0.030237 0.102556 0.537189
333 1 0.163741 0.209806 0.00602342 5.70363 -3.26386 -0.0762077 0.15227 -0.410605
335 1 0.188881 0.21296 0.0473747 9.99479 -3.1885 0.14918 -0.0227251 0.146803
334 1 0.190203 0.23509 0.0131719 4.81416 -3.32736 -0.319828 -0.144956 0.134833
339 1 0.204905 0.204691 0.00786848 6.51396 -3.30812 0.023271 0.320424 0.387321
344 1 0.231786 0.230377 0.0132464 0.563174 -3.30408 0.1959 -0.414466 0.331603
343 1 0.246486 0.201765 0.00712129 0.902705 -3.28367 0.0353129 -0.598558 0.530376
1941 1 0.229814 0.207392 0.037042 1.71496 -3.32515 -0.375246 0.0276365 -0.322464
1942 1 0.261197 0.231276 0.0380488 0.835743 -3.31625 -0.758846 0.0902417 0.093506
340 1 0.216849 0.23666 0.0433913 1.57952 -3.27952 0.158038 -0.25129 -0.125439
347 1 0.288585 0.19439 0.00458642 0.399565 -3.33504 -0.171969 0.121607 0.203273
348 1 0.275391 0.224859 0.0102583 0.468995 -3.31968 0.0890196 -0.485568 0.460196
1945 1 0.272701 0.201194 0.0328451 0.592932 -3.30153 -0.206956 0.350776 0.00898368
1946 1 0.301676 0.226257 0.0357835 0.475415 -3.29187 -0.0424911 0.260148 -0.324366
1949 1 0.3145 0.197976 0.0295886 0.466432 -3.28478 -0.276025 0.0457714 -0.166686
352 1 0.319165 0.220997 0.00559976 1.0436 -3.30604 -0.557614 -0.166052 0.492385
1950 1 0.34164 0.222786 0.0314155 0.681788 -3.33511 0.41682 -0.144206 -0.0295692
356 1 0.359319 0.214452 0.00232899 0.759677 -3.29756 0.275693 -0.0691556 0.688147
1954 1 0.383879 0.216131 0.0282528 0.440831 -3.29712 -0.149464 0.191248 -0.481551
435 1 0.387487 0.239812 0.00678187 0.520299 -3.37114 0.0462011 -0.103487 -0.203095
1958 1 0.425322 0.211228 0.0254346 7.13884 -3.32484 0.276915 -0.218119 0.0488419
364 1 0.457799 0.210498 0.00663513 1.14112 -3.27854 -0.314981 0.0561974 -0.902607
2041 1 0.453854 0.235039 0.0272894 7.70984 -3.25406 0.132476 0.0611571 0.0504034
1962 1 0.482214 0.211879 0.028826 0.80246 -3.25687 0.39017 -0.0360433 0.502372
1965 1 0.51413 0.190468 0.0292803 1.69845 -3.2559 -0.050289 -0.23086 0.895187
368 1 0.516676 0.213094 0.0112986 1.07711 -3.29255 -0.0115937 0.49141 -0.72118
367 1 0.548481 0.190771 0.0119628 0.941301 -3.291 0.145092 0.847508 -0.331954
1966 1 0.543827 0.214646 0.0339737 0.943906 -3.28577 0.331647 0.251627 -0.291938
1969 1 0.577204 0.195175 0.0372557 0.631332 -3.33942 0.00835444 -0.0230814 -0.559263
372 1 0.577233 0.219084 0.0153866 0.736906 -3.37939 -0.163167 -0.213861 -0.489255
371 1 0.609144 0.197487 0.0151443 0.653747 -3.34704 -0.0930009 0.198677 0.621278
1970 1 0.603998 0.221136 0.0384807 0.357839 -3.30982 0.0675597 -0.330903 0.298126
1973 1 0.633764 0.198524 0.0405247 0.607005 -3.39067 0.395312 0.246212 -0.0454286
376 1 0.636293 0.224501 0.0187603 0.655039 -3.23144 0.457273 -1.1028 0.452378
1974 1 0.660457 0.224608 0.0440482 1.16038 -3.32101 0.459112 -0.482389 -0.597025
375 1 0.668888 0.20245 0.019567 0.765285 -3.31546 -0.315144 0.241511 0.717867
379 1 0.728721 0.205331 0.0264765 0.276544 -3.34722 0.342689 -0.0599319 -0.0731028
380 1 0.69578 0.225982 0.0233213 0.56449 -3.37208 -0.0513099 0.40398 0.153066
377 1 0.703315 0.203668 0.0020389 0.535831 -3.30815 0.0970259 0.352754 -0.327804
378 1 0.730352 0.229759 0.0054878 1.0957 -3.27199 0.000402739 -0.167677 -0.479713
384 1 0.75681 0.230727 0.0279068 0.417387 -3.27159 0.175296 -0.470182 0.206736
381 1 0.759408 0.206918 0.00484153 1.60556 -3.35294 0.372991 -0.0720748 0.365505
383 1 0.78882 0.210005 0.0312973 0.944499 -3.34854 0.0694834 -0.28689 -0.161998
382 1 0.786823 0.232351 0.00733664 1.99317 -3.2962 0.4459 -0.249444 0.155406
308 1 0.823897 0.185596 0.032765 2.59795 -3.24312 -0.725747 0.162583 0.242214
306 1 0.85135 0.19245 0.0129227 2.95206 -3.31205 0.587378 -0.371431 0.0387801
385 1 0.822242 0.214967 0.0129006 3.99764 -3.26132 -0.463276 -0.679496 -0.298671
387 1 0.845476 0.210777 0.0373843 2.59171 -3.32159 0.929088 0.538762 -0.010911
312 1 0.883054 0.190779 0.0393674 0.763426 -3.30038 -0.278889 0.663009 0.0225922
310 1 0.913993 0.194393 0.0186152 0.35636 -3.32641 -0.192679 -0.0728245 0.322097
389 1 0.881724 0.215976 0.0153115 1.03552 -3.3336 -0.359463 -0.484255 0.591387
391 1 0.908141 0.216519 0.0414713 0.713706 -3.35158 0.553711 -0.268928 -0.20096
316 1 0.944161 0.196359 0.0424177 0.932211 -3.33685 -0.462732 -0.239114 0.352823
393 1 0.943572 0.219413 0.0210397 0.353169 -3.27453 -0.0346433 0.0337463 0.19648
314 1 0.976891 0.197754 0.0234739 0.974101 -3.29441 -0.215538 0.352243 0.215053
30716 1 0.945633 0.198176 1.00013 1.12705 -3.24705 0.909834 -0.530865 -0.439388
324 1 0.0325971 0.249426 0.0299362 1.84672 -3.30649 -0.373549 0.288097 0.110514
322 1 0.0579876 0.254139 0.00848046 1.26788 -3.27004 0.577311 -0.246338 -0.110043
403 1 0.0556774 0.279188 0.0291824 3.52162 -3.30987 -0.224823 -0.593086 0.657312
401 1 0.0292216 0.275149 0.00406609 1.64021 -3.24133 -0.72057 -0.429882 0.403879
398 1 0.00248158 0.248843 0.0035993 0.447052 -3.31457 0.0443938 -0.271986 0.543193
328 1 0.0853196 0.254559 0.0327377 1.51236 -3.34989 0.349863 -0.0231459 -0.0423404
326 1 0.119844 0.259497 0.0142206 0.714999 -3.22541 -1.02699 0.401157 -0.0331309
405 1 0.0875325 0.279331 0.0107219 0.404811 -3.3048 0.210059 -0.327008 0.144594
407 1 0.115455 0.281567 0.0355138 0.32239 -3.26228 -0.413467 0.0974527 0.0799475
329 1 0.14761 0.240351 0.0153982 8.12764 -3.13987 0.84218 -0.454739 -0.0235813
336 1 0.176375 0.243194 0.0412398 6.24709 -3.23165 -0.109916 -0.474766 0.367255
332 1 0.144747 0.261809 0.0386736 5.20594 -3.18159 0.421907 -0.00795738 -0.0818473
330 1 0.176865 0.263844 0.0196161 7.79362 -3.29822 0.355707 0.344038 -0.076244
409 1 0.146103 0.285027 0.0157412 0.306458 -3.29298 -0.0147153 0.314433 0.323927
411 1 0.173311 0.28708 0.0406096 5.61008 -3.31779 -0.0939452 0.168627 -0.0531278
415 1 0.202294 0.266395 0.0449659 4.65033 -3.22264 0.209632 0.130078 0.437468
417 1 0.218999 0.258208 0.0188682 0.653653 -3.30329 0.0459939 0.398723 -0.230705
419 1 0.243503 0.260618 0.0448368 0.523509 -3.3098 0.331893 -0.0648482 -0.213625
418 1 0.248381 0.283839 0.0215868 0.989667 -3.27434 -0.50033 -0.216351 -0.305129
423 1 0.261952 0.254251 0.0156445 0.629224 -3.31997 -0.56195 0.130283 0.327254
428 1 0.287355 0.27909 0.0163293 1.21459 -3.2479 0.493256 -0.397344 0.169595
2025 1 0.287528 0.255479 0.0415971 0.553461 -3.30512 -0.288531 0.232633 -0.0993865
427 1 0.302971 0.25044 0.0122375 0.595958 -3.32766 0.287396 -0.181702 0.0318857
432 1 0.330207 0.27531 0.0159615 0.783452 -3.30085 -0.00294855 -0.580122 -0.640945
2029 1 0.328007 0.251614 0.0373743 0.526018 -3.34803 0.390932 0.169861 0.199641