ITEM: TIMESTEP
500
ITEM: NUMBER OF ATOMS
32000
ITEM: BOX BOUNDS pp pp pp
6.3056274136962465e-02 8.0936943725863074e+01
-2.1431656785249942e-01 8.1214316567852336e+01
-2.1003773842303985e-01 8.1210037738422727e+01
ITEM: ATOMS id type xs ys zs c_csym c_peratom fx fy fz
3 1 0.0243071 -0.000147995 0.0245171 0.295753 -3.34629 0.076602 0.264711 0.0293079
4 1 -0.000437651 0.023957 0.0240194 0.629157 -3.34382 0.0720794 0.427034 -0.086819
8 1 0.048854 0.0263077 0.0236191 0.543593 -3.27876 0.0694979 -0.667435 0.689052
83 1 0.0251039 0.0512413 0.0247514 0.353614 -3.31499 -0.567881 -0.229118 -0.229197
1602 1 0.0222043 0.0277064 0.0502822 2.0615 -3.27694 0.84842 -0.541952 -0.796821
1685 1 0.0497618 0.0504245 0.0481033 0.628776 -3.29993 -0.0934698 -0.0619271 0.662036
7 1 0.0744078 -2.24568e-05 0.0223798 0.817255 -3.328 -0.0779036 -0.224752 0.333871
12 1 0.0989952 0.0257118 0.0254737 0.506069 -3.37121 0.249442 -0.182308 -0.314684
87 1 0.0739852 0.0503532 0.0241114 0.418662 -3.30012 0.795358 0.244941 0.301183
1606 1 0.0737411 0.0246234 0.0484468 0.563468 -3.31179 0.0302261 0.314933 0.146621
1689 1 0.0998849 0.0489821 0.0497101 0.621339 -3.34001 -0.13419 0.250573 0.0727437
10 1 0.125372 0.0251738 0.000769516 0.253354 -3.26454 -0.263956 0.197314 0.0608695
16 1 0.150619 0.0250681 0.0268442 0.879173 -3.31917 -0.330608 0.16554 -0.649145
91 1 0.124718 0.0523351 0.025494 1.32857 -3.32561 0.238321 -0.604112 0.282392
1610 1 0.124574 0.0234986 0.0494413 0.808578 -3.34639 -0.195429 0.253127 -0.0439037
1613 1 0.149736 0.000721892 0.0501156 0.567106 -3.29529 -0.104923 -0.498724 -0.181434
1693 1 0.151313 0.0489468 0.0502076 0.439804 -3.29116 -0.547838 0.0964704 -0.0555993
15 1 0.173881 -0.000618807 0.0250878 0.386891 -3.32011 0.0215549 0.167789 -0.427598
20 1 0.199058 0.022897 0.0242812 1.1053 -3.36649 0.494474 0.297591 -0.0935002
95 1 0.17662 0.0498613 0.0253136 0.534802 -3.30958 -0.133432 0.0564154 -0.600721
1614 1 0.175883 0.026248 0.0483711 1.63082 -3.24396 -0.0825277 -0.957385 0.782858
1617 1 0.200815 -0.00209379 0.0500081 1.2464 -3.32289 -0.0992339 0.844239 -0.114338
1697 1 0.19938 0.0481623 0.0507887 0.978369 -3.30542 0.494115 0.736771 -0.0991731
19 1 0.225519 -0.000402636 0.0237308 0.268921 -3.31811 -0.220325 0.378765 0.0716948
21 1 0.250248 0.00290877 -0.000367759 1.11106 -3.2896 0.0315626 -0.446533 0.135453
24 1 0.248855 0.0256113 0.0250396 0.479132 -3.36267 0.378188 -0.0137878 -0.189184
99 1 0.223726 0.0513898 0.024943 0.676417 -3.35541 0.278095 -0.277123 0.206937
1618 1 0.224973 0.025225 0.0487524 0.559109 -3.33865 -0.29065 -0.297096 0.0601134
1621 1 0.24925 -0.00136791 0.0485484 0.444996 -3.3575 0.373107 0.489002 0.0966727
1701 1 0.250027 0.0485222 0.050163 0.46167 -3.31792 -0.223434 0.440906 0.13603
22 1 0.276741 0.0252308 0.000845629 0.973659 -3.2965 -0.640024 0.494471 -0.128268
23 1 0.277103 0.000392166 0.0229324 1.73149 -3.26798 -1.08937 -0.089057 0.941635
28 1 0.298725 0.027991 0.0256299 1.71176 -3.25792 0.225659 -0.586561 0.352839
103 1 0.274108 0.0512353 0.0270665 0.670191 -3.28666 -0.155107 -0.179931 -0.595407
105 1 0.298741 0.0509656 0.00109491 0.304595 -3.32263 0.285762 0.300771 -0.0498256
1622 1 0.275549 0.0242555 0.0491672 0.729287 -3.34758 -0.372095 -0.308267 0.0364953
1625 1 0.299303 -0.00260842 0.0490603 1.71427 -3.29437 -0.52327 0.538237 0.487543
1705 1 0.297369 0.0515409 0.0513304 1.43065 -3.33359 0.542149 -0.272485 0.000128467
26 1 0.322702 0.0258145 0.00228738 0.768669 -3.30329 0.459736 -0.145765 -0.291096
27 1 0.322659 0.000464758 0.0274237 0.931227 -3.32313 0.630052 0.0961112 -0.45535
29 1 0.349911 0.00150299 0.00244081 0.430745 -3.3512 -0.095585 -0.324736 -0.186967
32 1 0.349908 0.0261032 0.0251894 0.554191 -3.33983 -0.0848916 -0.135995 -0.064449
107 1 0.324345 0.049159 0.0254398 0.696243 -3.3074 0.0361393 0.495564 0.165266
109 1 0.349773 0.0518313 -0.000531283 0.757518 -3.33358 0.0148196 -0.321747 0.354951
1626 1 0.324051 0.0255445 0.0509849 0.31917 -3.33163 -0.0463487 -0.115549 -0.304603
1709 1 0.349772 0.0498018 0.0503322 0.288825 -3.31362 -0.256027 0.226634 -0.0470398
33 1 0.398036 0.000159294 0.000303069 0.586535 -3.26924 0.544711 -0.0185685 0.179977
36 1 0.39776 0.0260606 0.0262158 0.899472 -3.35523 0.194646 -0.208501 -0.0998618
111 1 0.374874 0.0520639 0.025926 0.581051 -3.32568 -0.260288 -0.417641 -0.657465
1630 1 0.372838 0.0259964 0.0495927 0.985322 -3.28877 0.390542 -0.354844 0.0668662
1713 1 0.398446 0.050249 0.0494176 0.43586 -3.33475 0.257842 0.208333 0.255197
34 1 0.421299 0.0246024 0.00206832 2.31244 -3.30893 0.770721 -0.0297856 -0.158587
40 1 0.447933 0.0257375 0.0273643 1.41349 -3.29358 0.693576 -0.137048 -0.705934
115 1 0.426132 0.0505415 0.0248315 1.23331 -3.31949 -0.646703 0.156083 0.273759
1634 1 0.424878 0.026579 0.0505097 0.475241 -3.31354 -0.46445 -0.261959 0.270681
1637 1 0.449647 -0.000579596 0.0477489 1.57362 -3.31272 -0.164245 -0.000623284 0.502657
1717 1 0.448795 0.0522794 0.0507559 0.774261 -3.30426 0.368614 -0.223302 0.0469349
1638 1 0.474763 0.0259594 0.0490853 0.38961 -3.34793 -0.0437559 -0.223187 0.186975
38 1 0.47657 0.0253932 0.00123062 0.329941 -3.35761 -0.326816 -0.0399526 0.1034
39 1 0.476631 -0.000403254 0.025891 0.670362 -3.26789 -0.734689 0.120177 -0.314044
41 1 0.499696 0.00077956 0.0018263 0.589869 -3.30769 0.00754402 0.0203017 -0.65509
42 1 0.525618 0.0254468 0.00214485 0.772436 -3.34736 -0.31849 -0.031332 -0.435726
44 1 0.500576 0.0267684 0.0268961 0.736697 -3.33773 -0.00739984 -0.276206 -0.211735
119 1 0.475477 0.0511107 0.0261969 0.211722 -3.34148 -0.149181 -0.29899 -0.163466
123 1 0.526087 0.0508146 0.0271111 0.569159 -3.32081 -0.398559 -0.0440067 -0.3514
1641 1 0.498484 -0.00181193 0.0495361 1.13833 -3.26221 0.448525 0.681312 0.481073
1721 1 0.499867 0.0513639 0.0507923 0.455191 -3.27004 0.641341 -0.304955 -0.0422417
43 1 0.52285 -0.00119505 0.0260002 0.909275 -3.25422 0.672702 0.704167 0.13589
46 1 0.575236 0.0263216 0.000952921 0.406565 -3.32441 -0.306441 -0.243018 -0.337334
47 1 0.573205 0.000574103 0.0255073 0.822906 -3.372 0.262558 -0.290993 -0.328531
48 1 0.550427 0.0260634 0.0244999 0.460096 -3.30746 -0.125277 -0.277685 0.307941
125 1 0.548597 0.051156 0.000937688 0.419355 -3.35066 0.356252 -0.0903735 -0.170515
127 1 0.576637 0.051299 0.0259188 0.705387 -3.32843 -0.378261 0.00518759 -0.0835756
1645 1 0.549589 -0.00157217 0.0502824 0.415697 -3.37497 0.0331946 0.290866 -0.0385385
1646 1 0.574501 0.0254333 0.0492955 0.516735 -3.32884 0.148378 -0.352358 0.224063
1725 1 0.55122 0.0504842 0.0492359 0.872228 -3.27714 0.10673 -0.260498 0.521068
52 1 0.599695 0.0243764 0.0237544 0.832804 -3.30124 0.0627302 0.0321954 0.484684
131 1 0.624782 0.0500316 0.0269689 0.803995 -3.2877 0.199848 -0.0758279 -0.712078
1650 1 0.623091 0.0249116 0.048176 1.43703 -3.34755 0.563241 -0.371283 0.558743
1729 1 0.599541 0.048865 0.0511436 0.426926 -3.30091 -0.0859975 0.0604863 0.124814
53 1 0.651653 0.00159423 -3.30558e-07 0.443753 -3.36206 0.0102194 -0.319138 -0.162053
55 1 0.677258 0.00231792 0.0249287 0.848778 -3.3055 -0.459131 -0.206545 0.1072
56 1 0.650894 0.0264621 0.0240618 0.514033 -3.34162 0.134857 -0.239452 0.784258
133 1 0.650563 0.0500564 0.000891982 0.270008 -3.31147 0.0477695 0.10208 -0.168561
135 1 0.677022 0.0510621 0.0255152 0.431864 -3.29865 -0.0229176 -0.663443 0.101522
1653 1 0.65139 3.43978e-06 0.0498146 0.280039 -3.32051 -0.0808435 0.117488 -0.137752
1654 1 0.675862 0.0260544 0.0503233 0.202487 -3.39789 -0.103843 -0.209487 0.00610068
1733 1 0.650485 0.0515316 0.049969 0.714256 -3.29156 -0.00844766 -0.938442 -0.0722144
58 1 0.726064 0.0251642 0.000993862 0.358697 -3.36218 0.122806 0.0180151 -0.0311021
60 1 0.703052 0.025464 0.0259961 0.672758 -3.32907 -0.428929 0.0657929 -0.353831
139 1 0.726542 0.0514759 0.0249734 0.258779 -3.31076 -0.192461 -0.221332 0.187498
1658 1 0.726109 0.0246823 0.0495552 0.355701 -3.33238 0.352156 0.161281 0.139957
1737 1 0.701421 0.0500189 0.0511475 0.284884 -3.36772 -0.0917755 0.223305 -0.115661
63 1 0.774772 0.00146783 0.0237232 0.932684 -3.36698 0.112672 -0.506629 0.252499
64 1 0.752597 0.0273168 0.0255943 1.10136 -3.3132 -0.361521 -0.547805 -0.282496
143 1 0.775738 0.0520171 0.0251273 0.485639 -3.30189 -0.161273 -0.231414 -0.131797
1662 1 0.779163 0.0260921 0.0495581 2.094 -3.27672 -1.08452 -0.226564 0.486675
1741 1 0.750161 0.0499201 0.0491663 0.887816 -3.31994 0.437933 0.146623 0.557027
68 1 0.799975 0.0263796 0.0255754 0.499871 -3.26841 0.486631 -0.453665 -0.647897
147 1 0.826585 0.0502763 0.0252639 0.673391 -3.32512 -0.225911 0.0466398 0.314949
1666 1 0.822728 0.0255768 0.0502843 1.04807 -3.35929 0.530294 -0.117349 0.0751285
1745 1 0.800457 0.050617 0.0494125 0.40557 -3.25975 0.269731 0.379705 0.337494
71 1 0.87631 0.000598432 0.0249252 0.547706 -3.33616 -0.602682 -0.106818 0.314307
72 1 0.849505 0.0254986 0.0270496 0.529795 -3.3422 0.158907 -0.329355 0.0415707
151 1 0.873405 0.0492788 0.0256427 0.579819 -3.31822 0.556182 0.263718 -0.139382
1669 1 0.849346 0.00154478 0.0527068 1.59549 -3.33386 0.341855 0.100214 -0.635329
1670 1 0.875862 0.0250291 0.0504744 0.336541 -3.30673 -0.59252 0.0163775 -0.176994
1749 1 0.851013 0.0513674 0.0509364 0.856614 -3.28384 -0.713337 -0.289357 -0.137381
74 1 0.92309 0.024694 0.000164964 0.543481 -3.34245 -0.0412658 0.467458 -0.281416
75 1 0.924339 0.0012282 0.0244203 0.288716 -3.30516 0.00178329 -0.353904 0.161501
76 1 0.899394 0.025491 0.0259174 0.345938 -3.29195 0.180053 0.147896 -0.50041
153 1 0.898108 0.0496342 -0.00219589 1.07626 -3.32183 0.627844 0.0977836 0.934912
155 1 0.924644 0.0513446 0.0245318 0.304347 -3.37558 -0.162069 0.00250339 -0.092666
1673 1 0.900391 0.00174249 0.0506251 0.553463 -3.29012 -0.0471891 -0.593469 -0.318174
1674 1 0.925489 0.0248492 0.0486236 0.497375 -3.32697 0.0980905 0.349683 0.39633
1753 1 0.900745 0.0487858 0.049323 0.696358 -3.32109 -0.211077 0.536397 0.0577887
1681 1 0.999476 0.0514139 0.0491142 0.308677 -3.32447 -0.185161 0.148537 0.0796045
80 1 0.948496 0.0262164 0.0227329 0.72991 -3.29312 0.338637 0.0536695 0.570351
159 1 0.97336 0.0516244 0.0241837 0.397215 -3.36915 0.324121 -0.192811 -0.0979799
1677 1 0.9494 0.00149205 0.0494863 0.606263 -3.33252 0.447426 -0.352335 -0.0729571
1678 1 0.975131 0.0258864 0.0477171 0.908508 -3.37625 -0.220183 -0.034698 0.418176
1757 1 0.949476 0.051228 0.0504417 0.283951 -3.35354 0.0941823 -0.258542 -0.0294576
84 1 -0.00117302 0.0765475 0.0241155 0.324861 -3.34916 0.162918 -0.224405 0.148057
161 1 -8.29803e-05 0.100062 -6.69721e-05 0.342352 -3.31454 0.0711054 0.348819 0.105327
163 1 0.0257278 0.101497 0.024997 0.590829 -3.33755 -0.492099 -0.273305 -0.34519
165 1 0.0488264 0.100662 -0.000843239 0.331851 -3.35873 0.152752 -0.217497 0.184864
1682 1 0.0234142 0.0765312 0.0495183 0.51826 -3.3816 0.100976 -0.0292266 0.426028
1761 1 -0.00145655 0.101022 0.0507901 0.438874 -3.34631 0.377366 -0.0353745 -0.0107177
1765 1 0.0487531 0.101578 0.050051 0.289917 -3.31119 0.0519818 -0.506731 0.163137
88 1 0.048594 0.0747437 0.0262988 0.909173 -3.30437 0.365779 0.685033 -0.519021
92 1 0.0996472 0.0762986 0.0251346 0.265355 -3.37368 -0.195903 -0.236431 -0.0407977
167 1 0.0735655 0.101656 0.0256314 0.362398 -3.32657 -0.0487169 -0.440042 -0.472035
1686 1 0.0747178 0.076985 0.0495967 0.625527 -3.36484 -0.177979 -0.377486 0.0787798
1769 1 0.0985476 0.100844 0.0504878 0.347955 -3.27358 0.235158 -0.4846 -0.0741293
96 1 0.15198 0.0754393 0.025393 0.601438 -3.33149 -0.508574 -0.214596 -0.121452
171 1 0.124183 0.100591 0.0261097 0.354506 -3.34841 0.277409 -0.221998 -0.0396223
1690 1 0.124105 0.0736579 0.0520757 1.22827 -3.29601 0.217348 0.25864 -0.683951
1773 1 0.149191 0.0995695 0.0499159 0.170339 -3.40236 0.115641 0.145624 -0.0821239
100 1 0.200779 0.0764877 0.0254294 0.565677 -3.27432 -0.0130705 -0.584553 0.247526
175 1 0.177036 0.0988158 0.0250498 0.77223 -3.2952 -0.544729 0.422546 -0.0022616
1694 1 0.174111 0.0733507 0.0495148 0.82898 -3.30087 0.568743 0.394626 0.372976
1777 1 0.198713 0.100325 0.0507305 0.494007 -3.29039 0.403265 -0.037947 -0.192953
104 1 0.250826 0.075447 0.0256114 0.509958 -3.34988 -0.447393 0.232754 -0.0994546
179 1 0.223523 0.101433 0.0255231 0.462823 -3.34001 0.468914 -0.175341 0.00475738
1698 1 0.224951 0.0761092 0.0509871 0.280424 -3.40087 0.0119056 -0.245427 -0.127913
1781 1 0.248526 0.101308 0.0514476 0.54275 -3.34461 0.0594166 -0.159325 -0.229264
102 1 0.275776 0.0762616 -0.000393854 0.545792 -3.3583 -0.279187 0.155609 0.00679928
108 1 0.297159 0.0762736 0.0256439 0.979887 -3.30922 0.610337 -0.236248 -0.0441305
183 1 0.275857 0.100956 0.0258028 0.418784 -3.30392 -0.287935 0.0552036 -0.134262
1702 1 0.272322 0.075641 0.0517813 1.03653 -3.32157 0.243886 -0.0315727 -0.115716
1785 1 0.299962 0.0997982 0.0503473 0.303638 -3.30611 -0.0354997 0.113042 -0.0386905
112 1 0.348012 0.0748128 0.0252717 0.574468 -3.29994 0.499296 0.204175 0.101165
187 1 0.323916 0.100858 0.0244564 0.321162 -3.27522 0.348987 -0.349849 0.33583
1706 1 0.323099 0.073741 0.0494264 0.703544 -3.35646 0.283059 0.118915 0.199475
1789 1 0.349521 0.0982496 0.0502624 0.870486 -3.37354 -0.133017 0.61536 -0.0648909
116 1 0.399518 0.0765652 0.0260403 0.465299 -3.36025 0.306842 -0.0495041 -0.277645
191 1 0.375743 0.102728 0.0240393 1.18012 -3.34658 -0.0325526 -0.604084 0.335327
1710 1 0.374404 0.0761543 0.0483382 1.00667 -3.29371 0.094142 0.0560154 0.418688
1793 1 0.399921 0.0999937 0.0517447 0.568403 -3.33173 -0.0181891 0.204321 -0.348677
114 1 0.425492 0.0741585 0.00127233 0.416747 -3.29269 0.194628 0.557552 0.171568
120 1 0.451604 0.0756368 0.0271895 0.475581 -3.33392 -0.438937 -0.0628399 -0.250017
195 1 0.426725 0.100252 0.0278365 0.898613 -3.364 -0.381773 -0.216201 -0.416497
197 1 0.450841 0.0980525 0.00168929 0.687415 -3.34219 -0.08549 0.165897 -0.0325202
1714 1 0.423319 0.0742872 0.0513037 0.912669 -3.30249 0.211032 0.461097 -0.444269
1797 1 0.45009 0.100925 0.0517373 0.238433 -3.30236 -0.0984221 -0.114414 -0.00241495
199 1 0.475131 0.100799 0.0295007 1.71563 -3.288 0.1318 0.00281379 -0.63285
122 1 0.523767 0.0753573 9.83397e-05 0.533721 -3.31613 0.0991598 -0.0409224 0.550813
124 1 0.501009 0.0763431 0.0268747 0.492737 -3.35502 0.0858202 -0.233411 -0.175502
201 1 0.499221 0.100857 0.00212258 0.694658 -3.25835 0.537715 -0.424817 0.023472
1718 1 0.476307 0.075139 0.0505528 0.444916 -3.27816 -0.327441 0.322875 0.368246
1722 1 0.526756 0.0731566 0.0525515 1.55096 -3.33569 -0.15736 0.809526 -0.13652
1801 1 0.500813 0.100184 0.0515861 0.339211 -3.3268 0.395378 0.219992 -0.135365
203 1 0.524855 0.100578 0.0256468 0.306358 -3.38444 0.0112367 0.080299 0.290913
128 1 0.550371 0.0754594 0.0269542 0.242192 -3.35359 0.117515 0.0759973 -0.176299
205 1 0.548686 0.0984206 0.00196715 0.841251 -3.31886 0.368454 0.439085 -0.163461
207 1 0.574887 0.10093 0.0270208 0.577315 -3.31123 0.202872 -0.822432 -0.240938
1726 1 0.575697 0.075489 0.0536691 1.41567 -3.35863 0.073316 0.0492198 -0.679368
1805 1 0.550065 0.100676 0.050782 0.497394 -3.37089 -0.114497 -0.0568108 0.155207
132 1 0.601732 0.0741937 0.0265429 0.576379 -3.32305 -0.754486 0.389767 -0.305922
209 1 0.600115 0.0982752 0.000919734 0.445487 -3.35301 0.194792 0.147065 0.0496621
211 1 0.626613 0.0973294 0.0263687 1.2012 -3.35602 -0.164859 0.4146 -0.48779
1730 1 0.623837 0.0731823 0.0501972 1.46653 -3.24465 0.594663 0.55096 0.4549
1809 1 0.602506 0.101054 0.0507879 0.816659 -3.31405 -0.311606 -0.496277 -0.0367276
136 1 0.653226 0.0736406 0.0256846 1.62775 -3.24918 -0.816034 0.420202 -0.136943
215 1 0.674751 0.100181 0.0259355 0.440827 -3.33778 0.456983 0.167892 0.0558608
1734 1 0.674849 0.0756446 0.0512727 0.420876 -3.29328 0.503997 0.0140462 0.0327875
1813 1 0.649931 0.0999118 0.0503239 0.419414 -3.3477 0.164619 -0.104016 0.17763
140 1 0.699561 0.074723 0.0250987 0.749841 -3.34666 0.434037 0.341469 0.401049
217 1 0.702872 0.0981813 0.000783639 1.36405 -3.31436 -0.798041 0.329722 -0.207014
219 1 0.725895 0.101574 0.0265025 0.662947 -3.31108 -0.184366 -0.293319 0.0403586
1738 1 0.726956 0.075998 0.0513609 0.652321 -3.32196 -0.596701 0.0114934 -0.417055
1817 1 0.699979 0.0995202 0.051353 0.318346 -3.40481 0.124527 0.0713475 -0.164748
144 1 0.750409 0.0759547 0.0258844 0.278433 -3.33399 0.285264 0.0390057 0.0121401
223 1 0.774523 0.100971 0.0249034 0.420493 -3.3383 0.382424 -0.22073 0.229091
1742 1 0.777316 0.0751192 0.0496378 0.598582 -3.37139 -0.403656 0.325259 0.194516
1821 1 0.750447 0.101475 0.049634 0.300838 -3.29938 0.227242 -0.399218 -0.000974999
148 1 0.80089 0.0741524 0.0249104 0.691299 -3.28506 0.339752 0.84007 0.352684
225 1 0.800954 0.100384 0.000904113 1.00713 -3.26868 -0.0969565 0.00223188 -0.226226
227 1 0.826211 0.101363 0.0229368 1.15647 -3.38086 0.171689 -0.359502 0.39509
1746 1 0.826528 0.0762403 0.0517042 0.96472 -3.38995 -0.199874 -0.200437 -0.536389
1825 1 0.802255 0.100819 0.0482606 0.97485 -3.36021 -0.451517 -0.351289 0.0838586
152 1 0.850108 0.0741309 0.0235972 0.658596 -3.33637 -0.251567 0.547563 0.336322
231 1 0.873893 0.100113 0.0245234 0.512075 -3.3481 0.0949494 0.0900526 -0.00920632
1750 1 0.874404 0.074644 0.0505605 0.434299 -3.32216 0.100007 0.398464 -0.336168
1829 1 0.850215 0.101297 0.0509738 0.584494 -3.28498 -0.0816171 -0.51275 -0.357474
154 1 0.924398 0.0759512 -0.000270644 0.262794 -3.33667 -0.321391 -0.526143 -0.0817971
156 1 0.899381 0.0758515 0.0259922 0.568415 -3.36847 -0.0887573 -0.446443 -0.337358
235 1 0.92423 0.09895 0.0241517 0.864076 -3.28707 0.165157 0.398657 0.346488
1754 1 0.924338 0.0756962 0.0516887 0.959371 -3.29435 0.332932 -0.138598 -0.531495
1833 1 0.90027 0.101084 0.0481755 0.697293 -3.32111 -0.256683 -0.183031 0.461932
158 1 0.974124 0.0764105 -0.000998865 0.274293 -3.35552 -0.0474452 -0.228157 0.192257
160 1 0.949371 0.0765781 0.0249676 0.273236 -3.3214 0.212809 -0.309849 0.163656
237 1 0.949353 0.0998335 0.00098447 0.425987 -3.33171 0.0783416 0.382774 -0.241246
239 1 0.976131 0.102516 0.0254341 1.16733 -3.32854 -0.602804 -0.44876 0.0469657
1758 1 0.97486 0.0749666 0.0505095 0.275791 -3.33686 -0.0107558 0.108765 0.00602199
1837 1 0.950213 0.0991316 0.0505126 0.664352 -3.3552 0.0706348 0.423895 -0.214345
162 1 0.0251034 0.127156 -0.00150056 0.707643 -3.28792 -0.0180009 -0.432265 0.559475
164 1 -0.000502807 0.126161 0.0232534 0.553852 -3.3221 0.221273 0.0116242 0.298949
168 1 0.049326 0.125909 0.0242741 0.236889 -3.33875 0.190647 0.248425 0.0223274
243 1 0.0244548 0.150015 0.0250467 0.354549 -3.37849 -0.0681624 0.224334 -0.173038
245 1 0.0511508 0.151752 -0.000566158 0.686811 -3.29354 -0.463142 -0.377619 0.280077
1762 1 0.0239349 0.125168 0.0486924 0.661859 -3.30426 -0.182381 0.210024 0.130446
1845 1 0.0527393 0.151025 0.0496673 1.95767 -3.31412 -0.28804 -0.178095 -0.00915955
172 1 0.0990517 0.125782 0.0255533 0.224789 -3.32878 0.00920632 0.0397168 0.00896859
247 1 0.0755484 0.151671 0.0250496 0.578639 -3.32747 -0.103121 -0.550842 0.191824
1766 1 0.0747822 0.123635 0.0505641 0.99016 -3.32634 -0.137017 0.821323 0.210758
1849 1 0.100488 0.149574 0.0511774 0.537553 -3.3422 -0.541513 0.10152 -0.226073
176 1 0.150497 0.125123 0.0234933 0.936038 -3.3321 -0.371562 -0.310592 0.600348
251 1 0.125224 0.150113 0.0252841 0.172522 -3.38705 -0.0551842 -0.0681606 0.175074
253 1 0.149547 0.149257 0.000250411 0.426828 -3.32801 -0.0782672 0.174962 -0.318401
1770 1 0.123523 0.123935 0.0506799 0.316022 -3.2949 0.415321 0.340691 -0.298453
1853 1 0.150735 0.148019 0.0513371 1.29684 -3.29704 -1.03269 0.512481 -0.502092
174 1 0.175559 0.125745 0.00147836 0.542201 -3.31161 0.0181811 -0.249033 -0.446551
180 1 0.19909 0.125105 0.0260923 0.464847 -3.31397 0.275218 0.383997 -0.263175
255 1 0.173675 0.150862 0.0249053 0.488469 -3.28658 0.545293 -0.195062 0.0359937
257 1 0.198264 0.149791 -1.50973e-06 0.727894 -3.35015 0.172846 0.180624 0.140837
1774 1 0.174204 0.1257 0.0482743 0.961939 -3.29813 0.159513 -0.540458 0.339186
1857 1 0.199705 0.15085 0.0515149 0.710951 -3.39041 -0.0905441 0.0762617 -0.25906
178 1 0.225014 0.127122 0.000798532 0.69076 -3.33492 0.480994 -0.0710722 0.406142
184 1 0.250639 0.123883 0.0256641 1.21296 -3.31908 -0.110135 0.642477 -0.140403
259 1 0.225944 0.151323 0.0263513 0.671201 -3.32422 -0.176537 -0.299508 -0.417452
1778 1 0.224036 0.126561 0.0492319 0.946208 -3.33595 0.252246 -0.230037 0.355433
1861 1 0.252136 0.150108 0.048355 1.01359 -3.35656 -0.168303 0.141751 0.361431
182 1 0.275469 0.126728 -0.00150169 0.416328 -3.36461 -0.187702 -0.00125913 0.151657
188 1 0.300792 0.124752 0.0230568 0.58211 -3.28509 -0.311179 0.506698 0.465723
263 1 0.2756 0.150743 0.023015 0.412583 -3.33632 0.0926068 -0.11505 0.310191
1782 1 0.274715 0.124351 0.0505997 0.332394 -3.33731 0.146456 0.147406 -0.0701739
1865 1 0.300043 0.147706 0.0491051 0.854599 -3.33608 -0.15746 0.450629 -0.0879364
186 1 0.327482 0.124891 0.000438611 1.09588 -3.27796 -0.473546 0.699654 -0.207691
192 1 0.351136 0.124867 0.0251648 0.557963 -3.35857 -0.0672907 0.20323 0.0639316
267 1 0.325777 0.151806 0.0242388 0.578178 -3.31392 -0.124453 -0.442948 0.107811
269 1 0.350049 0.152166 0.00076165 0.483827 -3.31866 0.352636 -0.437153 -0.288148
1786 1 0.324588 0.124445 0.0481653 0.579372 -3.34695 0.27443 0.0510608 0.461265
1869 1 0.350854 0.149733 0.0483825 0.670458 -3.29748 -0.45584 0.0950671 0.326687
190 1 0.376422 0.125699 -0.000394921 0.490656 -3.29345 -0.212105 0.362926 0.0932436
196 1 0.401519 0.126085 0.0241122 0.768267 -3.31046 -0.438146 -0.339736 0.224911
271 1 0.375124 0.152071 0.0262364 1.00619 -3.289 0.330553 -0.555073 -0.727138
1790 1 0.37748 0.125632 0.0505837 1.22301 -3.32804 -0.52723 -0.0881884 -0.122944
1873 1 0.401597 0.150037 0.0502074 0.394293 -3.33013 -0.263036 0.225163 0.126907
194 1 0.427062 0.123282 0.00132974 1.01579 -3.30975 -0.0650469 0.395442 -0.282468
200 1 0.451258 0.126011 0.0266765 0.557543 -3.28796 -0.108616 -0.378473 -0.324573
275 1 0.425833 0.148 0.0247315 1.12684 -3.28214 0.101293 0.831086 -0.204334
1794 1 0.424499 0.125827 0.0500005 0.485308 -3.31742 0.0827331 -0.204686 0.371001
1877 1 0.450523 0.151098 0.049091 0.581035 -3.31729 -0.255073 0.0403219 0.505448
279 1 0.474274 0.151393 0.0254121 0.908305 -3.3243 0.456176 -0.19406 -0.373874
198 1 0.475 0.121183 0.00191387 2.62182 -3.26546 -0.361151 0.965433 -0.143098
204 1 0.499606 0.126534 0.0249595 0.765491 -3.32631 0.129137 -0.37226 0.567142
283 1 0.525982 0.149002 0.0239626 0.787816 -3.34112 -0.294644 0.340274 0.377254
1798 1 0.474352 0.126468 0.0512619 0.407168 -3.28719 0.323567 0.0358756 -0.130209
1881 1 0.499443 0.150973 0.0499584 0.367476 -3.35673 0.350464 -0.224068 -0.00353176
1802 1 0.524573 0.126169 0.0509372 0.441053 -3.38839 0.0618044 -0.299322 -0.191437
206 1 0.575559 0.123251 0.00181362 0.40283 -3.33683 -0.134979 0.0901397 -0.466848
208 1 0.550465 0.125639 0.0262121 0.501385 -3.28336 -0.255109 -0.620739 -0.0265671
287 1 0.57521 0.148142 0.0258442 0.314668 -3.2993 0.46017 0.340739 -0.102171
1806 1 0.577288 0.124052 0.0495025 0.902023 -3.23075 -0.429612 0.331533 0.425907
1885 1 0.550732 0.147775 0.0512625 0.363959 -3.30208 -0.111545 0.231122 -0.0968674
212 1 0.600997 0.123886 0.0246846 0.528101 -3.33311 0.285703 0.0959331 0.0404766
289 1 0.601533 0.150276 0.000584405 0.496099 -3.35357 -0.153401 -0.142325 0.102262
291 1 0.626898 0.150663 0.0260256 0.751722 -3.34243 -0.503507 -0.189022 -0.0137195
1810 1 0.62613 0.124473 0.0497322 0.413414 -3.3256 0.126148 0.284468 -0.0608249
1889 1 0.601001 0.14731 0.0506461 0.632333 -3.34133 0.128527 0.679119 -0.16532
214 1 0.67655 0.123695 -0.000653817 0.47389 -3.30645 0.051628 0.278459 0.463364
216 1 0.650093 0.124835 0.0236789 0.972204 -3.31458 0.0934133 0.063124 0.508597
293 1 0.649691 0.149751 0.000942774 0.393039 -3.33734 0.185746 0.00154487 -0.422113
295 1 0.675298 0.149372 0.0245364 0.397293 -3.32273 0.0852092 -0.423724 0.206486
1814 1 0.675133 0.124651 0.0531208 1.28554 -3.35765 -0.0325175 -0.168806 -0.902312
1893 1 0.650794 0.150756 0.0513432 0.538604 -3.34825 0.0733381 -0.39044 -0.216684
220 1 0.700496 0.124584 0.024408 0.42012 -3.37983 -0.051006 0.0406682 0.347536
299 1 0.727488 0.149018 0.0261881 0.937059 -3.30114 -0.551874 0.631222 -0.301114
1818 1 0.726469 0.126385 0.05014 0.528954 -3.31057 -0.42113 -0.329148 0.235998
1897 1 0.700418 0.150166 0.0495276 0.46925 -3.36047 0.0348262 -0.197034 -0.0542481
224 1 0.750852 0.126482 0.0240274 0.674979 -3.30654 0.148286 -0.248572 0.168337
303 1 0.77532 0.150336 0.0250377 0.225731 -3.34657 -0.244682 -0.0508006 -0.0617523
1822 1 0.774828 0.124748 0.0487761 0.324519 -3.3176 0.304636 0.198113 0.11128
1901 1 0.749816 0.150819 0.0519671 0.852508 -3.32727 0.399118 0.106108 -0.206679
226 1 0.823236 0.124818 -0.00188692 1.18861 -3.30583 0.489427 -0.0439862 0.14456
228 1 0.799936 0.126037 0.023495 0.659848 -3.32536 0.0852574 -0.157261 0.299844
305 1 0.801244 0.150898 -0.00034583 0.593541 -3.3466 -0.178716 -0.146107 -0.160179
307 1 0.825561 0.14922 0.026259 0.635949 -3.34759 -0.143703 0.117105 -0.293215
1826 1 0.824967 0.124493 0.0509316 0.541797 -3.29382 -0.0344697 0.285521 -0.154957
1905 1 0.799799 0.148738 0.0498616 0.497151 -3.33739 0.180326 0.164241 0.189744
230 1 0.873953 0.127276 0.000348331 1.08068 -3.34079 0.240123 -0.644772 0.252546
232 1 0.850793 0.125398 0.0269317 1.27051 -3.29647 -0.271482 -0.140136 -0.901408
309 1 0.848224 0.148846 -0.000125153 1.02658 -3.28026 0.210824 0.18736 0.393333
311 1 0.875963 0.151091 0.025037 0.412996 -3.34338 -0.196617 -0.0633024 0.098281
1830 1 0.875471 0.125407 0.0489375 0.279447 -3.3007 0.260581 -0.0283944 0.237274
1909 1 0.849309 0.148538 0.049951 1.01098 -3.29545 0.235827 0.869993 0.214795
234 1 0.92429 0.12471 0.00138164 0.382603 -3.33469 0.145016 0.0688935 -0.551962
236 1 0.901582 0.125467 0.0252033 0.860518 -3.2906 -0.795941 -0.1934 -0.0613536
315 1 0.922818 0.149927 0.0255939 1.20235 -3.27917 0.540907 0.36742 -0.11211
1834 1 0.924931 0.12483 0.0512575 0.660733 -3.30141 0.235834 0.236541 -0.557694
1913 1 0.899876 0.150933 0.0501719 0.447071 -3.32975 -0.170424 0.0870424 -0.118886
1841 1 0.998714 0.151968 0.0496951 0.541356 -3.29842 0.340549 -0.385367 -0.193032
238 1 0.974285 0.124032 -0.000543462 0.633057 -3.34506 -0.139139 0.283532 -0.0918157
240 1 0.949641 0.126706 0.0264963 0.671992 -3.35204 -0.104096 -0.682874 0.0795368
317 1 0.94887 0.149207 0.0023804 0.642673 -3.30077 -0.269774 0.0744277 -0.527879
319 1 0.974451 0.149993 0.0254871 0.321649 -3.31089 0.251518 -0.0049522 -0.144484
1838 1 0.975432 0.126481 0.0510345 0.543838 -3.34443 -0.207104 -0.167856 -0.0874544
1917 1 0.949874 0.151896 0.0497986 0.256979 -3.29918 -0.24006 -0.221889 0.058664
242 1 0.0254114 0.175547 -0.000573547 0.221791 -3.38705 -0.372919 0.123631 0.149958
248 1 0.0495042 0.173675 0.0253137 1.01261 -3.31168 0.00894813 0.482091 -0.111906
323 1 0.0256872 0.200737 0.0237337 0.776035 -3.34697 -0.263352 -0.264533 0.180741
1842 1 0.0242563 0.173342 0.0502447 1.43615 -3.2934 0.198393 0.778803 -0.606135
1921 1 0.00101834 0.200367 0.0491606 0.274113 -3.34583 0.0657065 0.154482 0.0777147
1925 1 0.0478097 0.199498 0.0488796 1.24528 -3.33314 0.452414 0.401565 0.0602304
252 1 0.0987009 0.175143 0.0260182 0.629559 -3.30902 0.504338 -0.0351331 -0.234923
327 1 0.0753848 0.200216 0.0232693 0.688709 -3.34079 -0.126911 0.270557 0.348355
329 1 0.100742 0.198853 -0.000883442 0.689422 -3.32468 -0.114878 0.531858 0.553577
1846 1 0.0747761 0.178711 0.049964 1.73291 -3.31315 -0.217592 -0.636724 0.0752672
1929 1 0.0990071 0.201192 0.0498042 0.515729 -3.30731 0.0398957 0.0782153 0.203859
250 1 0.126221 0.175253 0.00019798 0.578988 -3.35329 -0.439773 -0.406074 -0.107128
256 1 0.150216 0.174627 0.0251544 0.412626 -3.23929 -0.814026 -0.260606 0.219486
331 1 0.124018 0.198375 0.0270376 1.14726 -3.29791 -0.0636461 0.410386 -0.567346
333 1 0.146984 0.200369 0.00193971 0.97395 -3.2977 0.545246 0.121505 -0.328188
1850 1 0.124036 0.174844 0.0501968 0.308 -3.35266 0.218324 -0.545037 0.225261
1933 1 0.149054 0.198142 0.0500048 0.431874 -3.27264 -0.0470042 0.408068 0.333288
254 1 0.172494 0.175507 0.00141637 1.05271 -3.28829 0.350323 -0.110759 -0.622349
260 1 0.201364 0.175408 0.0242781 1.32095 -3.35742 -0.711076 -0.120011 0.467291
335 1 0.172589 0.199082 0.0264437 0.767984 -3.29393 0.720207 0.500463 -0.306112
1854 1 0.173644 0.174104 0.0488746 0.874125 -3.28476 0.75271 0.0303986 0.432138
1937 1 0.198999 0.200266 0.0500289 0.562804 -3.3933 0.19697 -0.207971 0.0564868
264 1 0.25091 0.176726 0.0244168 0.399103 -3.34294 -0.106006 -0.183395 0.029388
339 1 0.224229 0.200279 0.0254822 0.476478 -3.29045 0.110311 -0.31427 -0.250083
1858 1 0.226016 0.174682 0.0503394 0.298388 -3.33234 -0.0625813 0.385751 -0.00692341
1941 1 0.251024 0.200141 0.0487446 0.273554 -3.33766 -0.102912 -0.0720779 0.184497
268 1 0.300694 0.175594 0.0229867 0.369948 -3.33198 -0.196934 -0.317378 0.176328
343 1 0.276353 0.200366 0.0247854 0.36675 -3.30497 -0.341433 0.136535 -0.330897
345 1 0.300629 0.202354 0.00116804 0.971329 -3.34271 0.0193271 -0.114534 -0.485472
1862 1 0.276738 0.175264 0.0498605 0.451998 -3.36417 -0.169509 -0.314236 -0.233798
1945 1 0.300142 0.200706 0.0476606 0.609207 -3.2879 0.297405 -0.16977 0.561494
272 1 0.349729 0.176502 0.0239634 0.577218 -3.27801 0.372306 -0.0487329 0.227982
347 1 0.324144 0.199439 0.0249025 1.20933 -3.28947 0.616927 0.380797 -0.304025
349 1 0.351902 0.20051 -7.55979e-05 0.446907 -3.34944 -0.247484 0.454046 0.00776704
1866 1 0.325561 0.174731 0.0490789 0.31395 -3.36926 -0.1805 0.0836215 0.289104
1949 1 0.35023 0.199787 0.0480462 1.01593 -3.3285 0.301712 -0.197611 0.616332
276 1 0.403004 0.175529 0.0251055 0.918133 -3.34103 -0.631536 -0.0644955 -0.168393
351 1 0.377274 0.201166 0.0263784 0.664678 -3.37703 0.0608991 -0.277958 -0.212683
353 1 0.4024 0.203861 0.000219861 1.79747 -3.28331 -0.526069 -0.878417 0.212511
1870 1 0.376985 0.174233 0.0491831 0.960583 -3.30788 -0.206067 0.778215 0.440924
1953 1 0.401249 0.200398 0.051976 0.362029 -3.33956 -0.291209 0.403837 -0.345969
280 1 0.450772 0.175972 0.0248517 0.417877 -3.32162 -0.0854927 -0.304536 -0.150566
355 1 0.425798 0.199648 0.0269058 0.78899 -3.31418 0.014137 0.597557 -0.416281
357 1 0.452212 0.199938 0.000965123 0.469072 -3.35951 -0.235674 0.123947 -0.291151