ITEM: TIMESTEP
6750
ITEM: NUMBER OF ATOMS
32000
ITEM: BOX BOUNDS pp pp pp
2.6030653021434360e+00 7.8396934697856608e+01
-1.2955097881431925e+00 8.2295509788143363e+01
-1.2887416278951775e+00 8.2288741627894751e+01
ITEM: ATOMS id type xs ys zs c_csym c_peratom fx fy fz
8 1 0.0516259 0.0257032 0.0235876 1.0617 -3.32683 -0.391273 -0.162168 0.420338
1602 1 0.0245327 0.0242181 0.0514741 0.856621 -3.34928 0.377868 0.318169 -0.657001
2 1 0.0240037 0.0249521 -0.00102267 0.625791 -3.35001 0.0868239 -0.00361697 0.378452
83 1 0.0240592 0.0487061 0.0256269 0.427133 -3.35771 0.43808 0.209372 -0.143406
1681 1 0.000874726 0.0494977 0.0506474 0.345785 -3.32092 -0.280671 -0.00126281 -0.151169
12 1 0.101369 0.0253379 0.0231747 1.11426 -3.24979 -0.592909 -0.223831 0.710558
87 1 0.0755931 0.0500665 0.0258413 0.220658 -3.28269 -0.0262542 0.0244701 -0.241765
1606 1 0.0769557 0.0246822 0.0484679 0.888044 -3.37014 -0.329086 -0.0492424 0.458085
6 1 0.0761302 0.0253993 -0.00140472 0.804943 -3.30839 -0.0979818 -0.358217 0.132223
16 1 0.147835 0.0250456 0.0239857 0.851805 -3.28874 0.348678 -0.169885 0.274744
1610 1 0.126501 0.0256498 0.0495569 0.571359 -3.32961 -0.341407 0.0174076 0.315022
10 1 0.123892 0.0243924 -0.000133866 0.633791 -3.25894 0.409784 -0.0292036 -0.496194
20 1 0.198835 0.0256394 0.0245273 0.396921 -3.32126 0.10922 0.00208763 -0.215006
15 1 0.174637 -0.000724621 0.023915 0.696268 -3.28177 0.117443 0.388777 0.589897
1697 1 0.200661 0.0501615 0.0485894 0.46087 -3.32234 -0.250165 0.0644534 0.029022
14 1 0.174236 0.024395 5.50296e-05 0.423091 -3.30721 0.189938 0.270427 -0.0404743
24 1 0.249335 0.0238377 0.0250782 0.491492 -3.27058 0.299344 0.407995 -0.172346
1618 1 0.223382 0.024063 0.049931 0.555621 -3.27277 -0.00806394 0.297345 -0.0799003
1622 1 0.277471 0.0261939 0.0491112 2.27867 -3.29426 -0.605513 -0.557906 0.110496
23 1 0.273154 -0.000241613 0.0240187 1.08613 -3.2704 0.94547 0.403674 0.239903
103 1 0.274353 0.0487642 0.0243688 0.566662 -3.35425 0.108152 0.313853 -0.0199627
19 1 0.223544 0.00215373 0.0256024 0.989899 -3.32031 0.126044 -0.730507 -0.230013
28 1 0.300362 0.024843 0.0238017 0.54309 -3.3152 -0.13126 -0.374984 0.133462
26 1 0.325474 0.0254353 0.000122861 0.327722 -3.32587 -0.0746486 -0.46602 0.000507938
1705 1 0.296504 0.0523372 0.0513735 2.53405 -3.28937 0.929903 -0.0623939 -0.382405
32 1 0.349953 0.0262815 0.0274182 1.15991 -3.30282 0.0981273 -0.509483 -0.534166
111 1 0.374039 0.0506289 0.0252374 0.356474 -3.28926 0.270425 -0.170018 0.139602
30 1 0.374708 0.0250807 -0.000468739 0.670253 -3.34016 0.110019 -0.0229609 0.632186
36 1 0.399095 0.0259531 0.0260809 0.6384 -3.36819 0.160265 -0.26973 -0.470267
115 1 0.42518 0.0498925 0.025039 0.100266 -3.27735 -0.0904271 -0.221194 -0.0660158
33 1 0.399602 -0.00110297 0.00242728 1.07077 -3.24385 -0.21829 0.240736 -0.808504
113 1 0.400166 0.05048 0.000924066 0.442443 -3.32916 -0.202364 -0.201715 0.100558
40 1 0.451226 0.0247678 0.0242875 0.446464 -3.36368 -0.340627 -0.100194 0.0281642
119 1 0.477123 0.0497795 0.0270948 1.48479 -3.24645 -0.399724 0.0250392 -0.574255
1717 1 0.450074 0.0495435 0.0479017 1.22246 -3.29561 -0.205633 -0.226295 0.706134
44 1 0.500111 0.0240547 0.0242732 1.20318 -3.30185 0.202365 0.0995412 0.304803
121 1 0.500171 0.0527781 0.00212419 1.22755 -3.27411 0.156711 -0.966816 -0.421084
48 1 0.547147 0.0240359 0.0267006 1.90577 -3.26839 1.05985 0.557436 -0.260541
1642 1 0.524143 0.0238159 0.0502931 0.928899 -3.30849 -0.0456061 0.231927 0.355433
52 1 0.599646 0.0241014 0.0248598 0.271043 -3.30556 0.420438 -0.135106 0.252402
47 1 0.5741 -0.00112333 0.0248068 0.319251 -3.33474 0.133822 0.28066 0.0781806
1646 1 0.574946 0.0251351 0.0502822 0.586497 -3.3433 0.123496 -0.130269 -0.0551131
56 1 0.650328 0.0218247 0.0257515 1.57427 -3.27704 -0.000383712 0.73046 -0.454455
1653 1 0.650418 -0.000770317 0.0508851 0.765232 -3.28327 -0.002119 0.342384 0.0967522
131 1 0.625419 0.0485592 0.0247477 0.30464 -3.30629 0.0719271 -0.187237 0.1524
50 1 0.625485 0.0237969 -0.0018881 0.905085 -3.28448 -0.232918 -0.28602 0.704659
55 1 0.675746 -0.000645669 0.0266072 0.597605 -3.28413 0.152871 0.0259389 -0.487786
60 1 0.699489 0.0244618 0.0247086 0.401684 -3.32242 0.458014 0.0538981 -0.171197
1657 1 0.701233 0.00117741 0.0496751 0.303372 -3.30362 -0.062274 -0.135952 0.430486
1654 1 0.674961 0.0256943 0.0484929 0.354596 -3.29586 0.179219 -0.244631 0.470395
1658 1 0.725858 0.0245012 0.0499091 0.365257 -3.33006 -0.00753236 -0.0919658 0.136878
64 1 0.751679 0.0249917 0.0259441 0.850355 -3.32206 -0.433153 -0.138218 -0.388207
143 1 0.774708 0.0511162 0.0246763 0.572664 -3.3067 0.193286 -0.159727 0.276205
59 1 0.726355 0.000375608 0.026013 0.529605 -3.33518 -0.118401 0.0789623 -0.302578
139 1 0.726235 0.0501512 0.0219159 1.33236 -3.34826 0.035421 -0.12555 0.511072
141 1 0.752882 0.0517248 -0.000352218 1.31415 -3.26394 -0.814274 -0.548043 -0.101894
63 1 0.77582 0.000271037 0.0255622 0.238632 -3.33844 -0.0415589 -0.0527075 -0.213313
1741 1 0.748722 0.0483 0.0496434 0.992639 -3.28257 0.0135954 0.835649 -0.0880149
58 1 0.723902 0.0247699 -0.00219724 1.35207 -3.32766 0.344423 0.00723425 0.71513
61 1 0.748975 -0.00152041 8.44025e-05 0.964118 -3.31349 0.266295 0.662808 0.0738549
68 1 0.799982 0.0262554 0.0264645 0.520408 -3.32708 -0.0312126 -0.247045 -0.375932
147 1 0.824122 0.0516159 0.023697 1.19669 -3.33027 0.0558449 -0.248969 0.328607
72 1 0.845631 0.0257104 0.0261715 2.13991 -3.28702 0.721006 0.145433 -0.137244
149 1 0.851006 0.0492087 0.000165543 1.09149 -3.32472 -0.528889 0.524951 0.0569026
70 1 0.87164 0.0243438 0.00192622 1.13974 -3.22458 0.308382 0.101024 -0.293732
1670 1 0.875881 0.0261298 0.0514484 1.0362 -3.3039 -0.203864 0.0216586 -0.509521
76 1 0.898648 0.0259448 0.0238583 1.32284 -3.28159 0.619861 -0.0520068 0.649173
1674 1 0.92607 0.0245388 0.053318 1.83781 -3.35082 -0.590855 0.192667 -0.635957
75 1 0.924844 0.000358461 0.0255189 0.399647 -3.33692 0.19542 0.507074 0.214082
73 1 0.897501 0.00222378 0.000759681 1.06431 -3.31019 0.467822 -0.473096 -0.0779818
4 1 0.998966 0.0252183 0.0232504 1.66566 -3.3065 0.22674 -0.476504 0.432024
80 1 0.951848 0.0251661 0.0262524 0.997169 -3.27287 -0.599159 -0.149512 0.177738
159 1 0.97472 0.0501451 0.0254658 0.27279 -3.29606 -0.416759 -0.0194369 0.375488
79 1 0.974806 -0.00268616 0.0270417 1.21125 -3.27313 0.17574 0.336666 -0.804915
157 1 0.949599 0.051532 -0.00104031 1.05066 -3.32814 0.0411844 -0.409139 0.261876
1678 1 0.977462 0.0233691 0.0499256 1.52531 -3.27877 -0.321046 0.643816 0.315359
81 1 0.997003 0.0495705 0.000712823 0.850968 -3.28423 0.682309 -0.0739396 -0.434777
1685 1 0.0511515 0.0505417 0.0503609 0.337787 -3.35445 -0.322367 -0.371336 0.0276273
1682 1 0.0246115 0.0742351 0.0516535 0.628096 -3.31487 0.0736882 0.254397 -0.685581
88 1 0.0505997 0.0748193 0.0261841 0.253066 -3.34459 -0.0942913 -0.0612077 0.132747
84 1 -0.00148583 0.0737924 0.024277 0.793124 -3.28948 0.739274 0.410747 0.401307
1761 1 -0.000181538 0.100468 0.0471689 1.37401 -3.28115 0.106405 -0.274804 0.670658
163 1 0.0247968 0.100293 0.0254679 0.196195 -3.25913 -0.00526645 -0.356341 -0.385424
161 1 -0.000641013 0.101343 7.1484e-05 0.249744 -3.32822 -0.0314806 -0.343612 0.0341824
1689 1 0.101312 0.049123 0.0492928 0.831756 -3.32514 -0.141851 0.179791 0.584853
92 1 0.0999683 0.0744827 0.0267219 0.627438 -3.29968 0.0749698 0.327253 0.0898532
167 1 0.0760884 0.100793 0.025651 0.39859 -3.37157 0.00630955 0.0604535 0.0331984
1686 1 0.0753823 0.0742503 0.0533319 1.70555 -3.31122 -0.0376603 0.531114 -0.700565
91 1 0.124252 0.0506436 0.0248428 0.404825 -3.2624 0.612428 -0.00714483 0.0827679
93 1 0.149684 0.0499734 -0.000132554 0.322781 -3.32983 -0.138789 0.00686351 -0.234172
96 1 0.14923 0.0744835 0.0266836 0.57561 -3.30096 0.388529 0.340085 -0.154872
1690 1 0.125577 0.0754243 0.0512423 0.288788 -3.29188 -0.201371 -0.116788 -0.16787
1693 1 0.150887 0.0515363 0.0500787 0.612189 -3.29532 -0.396411 -0.426579 0.488496
95 1 0.171824 0.0488322 0.024865 1.62809 -3.28121 0.920695 0.312533 -0.0505249
100 1 0.200218 0.0741962 0.0227585 0.786303 -3.35886 -0.0268747 -0.0824572 0.68045
1694 1 0.176488 0.0750907 0.0509041 0.512461 -3.3318 -0.0188073 0.0545527 -0.407155
99 1 0.225833 0.0486475 0.024073 0.548258 -3.3383 -0.273003 0.420789 -0.0428935
104 1 0.249924 0.0763211 0.0241112 0.846579 -3.2887 -0.0257662 -0.76426 -0.0583187
1781 1 0.247556 0.0995458 0.0497274 0.883612 -3.29911 0.0100535 0.435852 0.191886
1701 1 0.248999 0.0485079 0.0487097 0.706481 -3.32765 0.250076 0.260933 0.190041
181 1 0.250522 0.10034 0.000247756 0.298005 -3.3155 0.239249 0.144555 -0.344082
107 1 0.323677 0.048683 0.0273652 1.55116 -3.34827 -0.139998 0.629119 -0.183365
108 1 0.299632 0.0757307 0.0239813 0.525798 -3.28693 -0.131352 -0.419545 0.722255
1785 1 0.299193 0.0983796 0.0494346 1.21691 -3.27199 0.0801329 0.6959 -0.0518395
112 1 0.34819 0.0751537 0.0259843 0.62342 -3.30662 0.278887 0.0534147 0.0935952
191 1 0.375569 0.0993289 0.0251057 0.393283 -3.30679 -0.279111 -0.0596214 0.0857669
1709 1 0.349709 0.0507538 0.0505101 0.319267 -3.35427 -0.129982 0.147743 0.213979
1710 1 0.376675 0.075206 0.0484429 0.844775 -3.35949 -0.474298 -0.0203916 0.408523
109 1 0.348719 0.0484444 0.00129128 0.940896 -3.30218 0.11194 0.616065 -0.0917773
110 1 0.373222 0.072596 0.00185146 1.95777 -3.31549 0.142263 0.474698 -0.375772
116 1 0.401382 0.0749819 0.0248743 0.33805 -3.28532 -0.222369 0.00673278 0.00822545
195 1 0.426164 0.0995621 0.0244303 0.442613 -3.32728 -0.285486 0.069896 0.0692547
1714 1 0.425067 0.0750146 0.0497877 0.166066 -3.32086 0.427406 0.16104 -0.0367937
120 1 0.450441 0.0750069 0.0250834 0.261606 -3.36197 0.175575 0.149529 0.00419507
199 1 0.476389 0.100751 0.0261243 0.730983 -3.34094 -0.315284 -0.0473882 0.0385534
197 1 0.452323 0.100665 -0.000181057 0.818981 -3.31477 -0.376077 -0.566846 -0.0328262
124 1 0.49881 0.0756436 0.0255099 0.616027 -3.28962 0.173693 0.164375 0.253889
123 1 0.524762 0.0522301 0.0278732 1.53251 -3.29493 0.199101 -0.644359 -0.438299
128 1 0.55242 0.0754173 0.0253466 0.435038 -3.3056 -0.0909758 -0.196853 -0.230925
125 1 0.549656 0.05039 0.00282958 0.786497 -3.3513 -0.0231748 -0.20113 -0.36651
1805 1 0.553727 0.0999955 0.0464635 3.69847 -3.23466 -0.728275 -0.0325243 0.880714
205 1 0.548219 0.10102 -0.0013379 1.92324 -3.30984 0.940826 -0.136813 0.798699
127 1 0.576845 0.0476703 0.0242656 1.40192 -3.29981 -0.491236 0.626578 0.641913
132 1 0.601267 0.0724801 0.026233 0.929236 -3.29892 -0.0748226 0.410468 -0.295509
126 1 0.576657 0.0743563 0.000688834 0.551239 -3.37744 -0.0965039 0.0146914 -0.291037
207 1 0.57769 0.100301 0.0237052 0.927023 -3.28219 -0.332731 -0.00342968 -0.0757106
1726 1 0.577043 0.0750124 0.0494325 0.363486 -3.33873 -0.208323 -0.325276 0.479466
209 1 0.600962 0.0996295 0.000723747 0.502603 -3.20483 -0.50963 -0.131108 -0.361124
136 1 0.649955 0.0749247 0.026431 1.12345 -3.32577 0.0523641 -0.0709232 -0.727147
1730 1 0.626179 0.0733699 0.0499187 0.307589 -3.29326 -0.283828 0.325438 0.200349
130 1 0.623479 0.0741011 -0.000371978 0.610378 -3.31546 0.460945 0.0798097 0.287273
135 1 0.674389 0.0508209 0.0232521 0.991734 -3.31401 0.0140276 -0.30679 0.11076
140 1 0.699715 0.0755091 0.0242363 0.213214 -3.27704 0.235221 -0.107096 -0.144714
1817 1 0.699747 0.10158 0.0485317 0.878131 -3.36235 0.198213 -0.142633 0.500757
134 1 0.675933 0.0762843 0.00027117 0.731761 -3.31008 -0.115104 -0.62415 -0.182379
144 1 0.750503 0.075524 0.0242262 0.270209 -3.29451 0.0203067 -0.074761 0.134906
1738 1 0.724761 0.0756967 0.0476139 0.658265 -3.32766 0.111727 -0.174323 0.291992
142 1 0.775612 0.0756062 -0.000737889 0.276112 -3.31935 0.043439 0.284163 -0.00827024
138 1 0.726371 0.0765934 -0.000453302 0.571539 -3.33219 -0.353618 -0.522535 -0.0370392
148 1 0.799515 0.0757489 0.0246394 0.564142 -3.31201 0.0880114 -0.322016 0.0479713
225 1 0.8009 0.10044 3.11262e-05 0.440131 -3.29308 -0.0854742 -0.114454 -0.206624
227 1 0.826418 0.099721 0.0238742 0.484975 -3.25387 -0.32252 -0.0775914 -0.15865
1825 1 0.800362 0.0987303 0.0470099 1.01095 -3.30742 -0.120632 0.266157 0.281113
146 1 0.824485 0.0738597 0.00061798 0.892038 -3.33732 0.309828 0.143347 -0.375955
151 1 0.873872 0.0496441 0.0267492 0.694123 -3.32305 -0.0685805 -0.0481108 -0.348335
152 1 0.849673 0.0754778 0.0248537 0.315685 -3.28467 -0.0286362 -0.477857 -0.171475
1750 1 0.875329 0.0741625 0.0485647 0.727633 -3.25776 -0.190125 0.647257 0.11109
1829 1 0.848728 0.0991203 0.048801 0.59751 -3.33015 0.447887 0.359918 0.273056
155 1 0.92533 0.0482672 0.0243738 1.32395 -3.34801 -0.0142951 0.215389 0.284601
156 1 0.899848 0.073929 0.024277 0.596733 -3.27519 0.0173189 -0.174908 0.172724
1754 1 0.926404 0.0757506 0.0520111 1.56996 -3.2508 -0.701319 -0.260378 -0.635751
1833 1 0.899571 0.100665 0.0480926 0.980536 -3.33537 -0.410494 -0.134518 0.765314
154 1 0.924033 0.0749312 0.000114229 0.186054 -3.28621 0.0233689 -0.114963 0.0169647
160 1 0.948124 0.0757333 0.0244259 0.786397 -3.33867 0.262648 -0.304808 0.260643
158 1 0.974609 0.0752839 0.00133818 0.542107 -3.25795 -0.30717 0.0550513 -0.537741
237 1 0.948971 0.10074 -0.000108681 0.302164 -3.32542 -0.14008 0.0701635 0.17999
168 1 0.0485038 0.126361 0.0256807 0.715846 -3.34794 0.398955 0.0405786 -0.158036
1762 1 0.0245774 0.125056 0.0498666 0.200232 -3.29035 -0.215588 0.232483 0.198514
164 1 0.000106936 0.125429 0.0248264 0.385646 -3.3096 -0.0581622 0.302915 -0.251145
1765 1 0.048247 0.100879 0.0492628 1.01415 -3.32723 0.583976 -0.394866 0.45052
165 1 0.0502382 0.0991854 0.00220282 0.444485 -3.33141 0.151058 0.118377 -0.409676
172 1 0.102985 0.125154 0.0261276 0.931692 -3.3137 -0.418532 0.196572 -0.310288
1766 1 0.07513 0.12449 0.0512605 0.491311 -3.32779 -0.326426 0.0865314 -0.213235
171 1 0.124358 0.0997025 0.0257523 0.584094 -3.31372 0.281275 -0.041005 0.110971
176 1 0.149822 0.124202 0.0264551 0.5669 -3.30362 0.162118 -0.0954214 0.0402881
251 1 0.129022 0.152165 0.02697 3.33139 -3.31379 -0.973706 -0.0941531 -0.267103
1773 1 0.150778 0.0989398 0.0511941 0.311764 -3.33632 0.00820436 0.216735 -0.292743
1770 1 0.125225 0.124381 0.0519831 0.723859 -3.29882 0.119499 0.385829 -0.35438
175 1 0.175869 0.0999286 0.026467 0.497567 -3.34824 -0.0399162 -0.301431 -0.151451
180 1 0.197695 0.12631 0.0260285 1.17826 -3.29549 0.561491 -0.00151352 -0.447272
1774 1 0.174953 0.124398 0.0497281 0.410028 -3.21964 0.0668385 -0.115974 0.282706
257 1 0.199049 0.149206 0.000224239 0.443949 -3.32392 0.112536 0.299579 0.418761
1777 1 0.201733 0.10091 0.0493029 0.795173 -3.33281 -0.0895547 -0.216926 0.000104377
179 1 0.226127 0.0990731 0.0235809 1.04141 -3.28 -0.800066 0.523067 0.204868
183 1 0.275295 0.101356 0.0244918 0.728609 -3.29435 0.294282 -0.383682 0.0697768
184 1 0.251838 0.124139 0.0252857 0.893643 -3.28805 -0.273618 0.560583 -0.181252
259 1 0.226531 0.150875 0.0261417 0.970244 -3.33035 -0.59262 0.250313 -0.335221
263 1 0.274567 0.15146 0.0244443 0.63073 -3.34088 0.214798 -0.164523 -0.0305026
1782 1 0.275677 0.12402 0.0505185 0.723714 -3.30274 -0.116294 0.365195 -0.27909
1778 1 0.22468 0.12679 0.0480147 1.42948 -3.31393 0.152459 -0.303327 0.349074
187 1 0.324649 0.100977 0.023421 0.860777 -3.32052 0.0159147 0.130164 0.57053
188 1 0.301006 0.126657 0.0257959 1.13244 -3.34421 0.00174951 -0.342977 -0.279757
185 1 0.299846 0.0980718 -0.000511063 1.21621 -3.27425 -0.164367 0.66842 -0.0972825
1789 1 0.351835 0.101831 0.0518186 1.6628 -3.28527 -0.658968 -0.493393 -0.753188
192 1 0.351012 0.12328 0.0241537 0.918612 -3.35889 0.118638 0.509026 0.171866
1790 1 0.377202 0.125132 0.0490311 0.670787 -3.32912 -0.307943 0.353264 0.00641945
196 1 0.398361 0.124983 0.0224752 1.39498 -3.28135 0.578111 -0.179858 0.277731
194 1 0.426748 0.123747 -0.000171561 0.648293 -3.36537 -0.285078 0.147284 -0.183
1794 1 0.423558 0.12538 0.0486831 0.762093 -3.33962 0.158107 0.254873 0.229936
200 1 0.449238 0.123688 0.0262171 0.99634 -3.28835 0.476692 0.282657 -0.211545
279 1 0.474768 0.148438 0.0240084 0.597024 -3.34544 0.181543 0.161545 0.169382
198 1 0.475396 0.123965 0.000544249 0.656612 -3.27203 -0.205952 0.616968 -0.0574309
277 1 0.449895 0.150679 -0.00101243 0.771916 -3.35682 -0.100639 -0.501641 0.0788494
203 1 0.524573 0.100241 0.0261499 0.886329 -3.32757 0.225966 -0.09798 -0.557759
204 1 0.502683 0.126025 0.0229633 2.02045 -3.28577 -0.544396 -0.0248799 0.906108
283 1 0.527067 0.15115 0.0260944 0.971889 -3.28307 -0.75882 -0.0734058 -0.361374
1802 1 0.524489 0.124545 0.0500595 0.530544 -3.30941 -0.0174634 0.0322357 0.158083
208 1 0.548928 0.125884 0.0271242 1.95773 -3.29009 0.442639 -0.354039 -0.942488
1885 1 0.550973 0.14911 0.0503352 0.371934 -3.31673 0.134615 0.372991 0.177741
281 1 0.499879 0.149266 -0.000456858 0.331141 -3.25537 0.238311 0.312668 0.424194
202 1 0.524749 0.125835 -0.000506108 0.601558 -3.26268 0.783254 -0.0590661 -0.0279141
212 1 0.600396 0.126012 0.0239052 0.547841 -3.30376 0.293216 -0.447622 0.345039
287 1 0.575845 0.148929 0.0238023 0.711245 -3.27281 -0.0875772 0.30475 0.509306
289 1 0.60112 0.149843 0.000117296 0.370112 -3.33842 -0.220675 0.267192 -0.335289
211 1 0.624717 0.0992867 0.0236893 0.466575 -3.33798 0.150559 0.0199201 0.313037
1813 1 0.649296 0.0998746 0.0483256 0.919056 -3.29689 0.15478 -0.256731 0.563874
1810 1 0.626136 0.125063 0.0505377 0.790091 -3.28606 -0.357379 -0.271622 -0.224524
216 1 0.649381 0.124287 0.0258866 0.719568 -3.27884 0.214265 0.0901495 -0.564557
213 1 0.650591 0.0980503 -0.00195365 1.69383 -3.28784 -0.468653 0.564418 0.615781
293 1 0.648742 0.14859 -0.000961693 1.02302 -3.28678 0.506887 0.311311 -0.177812
215 1 0.674329 0.100214 0.0244766 0.181454 -3.31087 0.117058 0.0990327 -0.0766973
217 1 0.701142 0.100037 0.000234122 0.315829 -3.31932 -0.267567 0.284396 -0.311415
1814 1 0.673874 0.124528 0.0499856 0.298707 -3.2853 0.473397 0.000988898 -0.0703351
220 1 0.699991 0.125333 0.0242499 0.128752 -3.35706 -0.148607 0.232508 0.0977395
297 1 0.699562 0.150779 -0.00101863 0.193088 -3.33071 -0.0197823 -0.15093 0.374582
219 1 0.724628 0.0999985 0.0242542 0.366025 -3.3051 0.343753 0.271331 0.211026
223 1 0.774552 0.0997366 0.0230505 0.460332 -3.249 0.0587198 -0.124525 0.2135
224 1 0.751097 0.124387 0.0220893 1.39024 -3.23245 -0.60226 0.30864 0.90089
221 1 0.749297 0.101621 -0.00102039 0.584769 -3.34027 0.261845 -0.231212 -0.288498
218 1 0.724587 0.125988 -0.000575673 0.253451 -3.30817 -0.130801 -0.000541404 -0.0479117
222 1 0.775923 0.126433 0.00159672 1.39089 -3.21941 0.0845341 0.0105932 -1.12898
228 1 0.80002 0.123032 0.0234791 1.02046 -3.27184 0.582889 0.666862 0.401557
307 1 0.825885 0.150256 0.0256413 0.539503 -3.32858 0.495394 -0.412558 -0.282708
231 1 0.874356 0.0983633 0.0232727 0.623313 -3.31127 0.0938931 0.523443 0.452363
229 1 0.85011 0.0991472 -0.00269717 0.929909 -3.31625 -0.262434 0.0996883 0.108306
232 1 0.849321 0.124295 0.0232822 0.370819 -3.3243 0.421183 0.370645 0.376689
235 1 0.921738 0.0982755 0.0249647 2.16854 -3.25145 1.11276 0.608272 -0.109455
236 1 0.898218 0.125688 0.0245699 0.616474 -3.31093 -0.0936551 -0.134509 0.083179
1834 1 0.925176 0.125013 0.047264 0.813664 -3.32003 -0.134254 -0.240201 0.478684
234 1 0.924229 0.124774 0.00135556 0.767137 -3.32761 -0.00209795 0.103846 -0.25618
239 1 0.973845 0.0996287 0.022874 0.739324 -3.30596 0.125219 0.263559 0.414698
240 1 0.950871 0.12678 0.0246255 1.15022 -3.28473 -0.211158 -0.569033 -0.325505
1838 1 0.975314 0.123726 0.047499 1.05676 -3.28566 -0.125745 0.385966 0.621899
243 1 0.0224673 0.152579 0.0244251 1.91216 -3.26083 0.441173 -0.941303 0.00728736
248 1 0.0481779 0.174154 0.0231861 1.26605 -3.27788 0.849604 0.0150395 0.351987
1845 1 0.0477492 0.15119 0.0501692 0.837248 -3.3468 0.830613 -0.442815 -0.0839188
1842 1 0.025799 0.175078 0.0504642 0.606609 -3.30594 -0.350144 0.387346 0.119239
242 1 0.0253328 0.174645 -0.00148829 0.749865 -3.28051 -0.462149 0.182968 0.145175
247 1 0.0763732 0.148329 0.0251663 1.15106 -3.28603 -0.838541 0.0933553 -0.282689
252 1 0.0972388 0.17457 0.0251765 1.65429 -3.28081 0.894017 0.0683001 0.222175
246 1 0.0767519 0.174844 -0.000786178 0.857261 -3.27593 -0.623444 0.0451305 0.21785
1849 1 0.0981033 0.14936 0.0488681 1.75416 -3.31259 0.623929 0.24092 0.672983
1846 1 0.0731494 0.176702 0.0501345 1.28742 -3.34757 0.087226 -0.563773 -0.0615208
256 1 0.151557 0.178679 0.0266334 2.59713 -3.1905 -0.588527 -0.969643 -0.253853
331 1 0.125815 0.199809 0.0240424 0.703645 -3.28378 -0.383483 0.278141 0.0330207
1853 1 0.151755 0.14802 0.0498744 1.844 -3.19711 -0.524273 0.57124 0.802755
1850 1 0.123903 0.173552 0.0522287 2.021 -3.28403 0.233763 0.145358 -1.02798
255 1 0.171972 0.151337 0.0255738 1.3699 -3.29473 0.848263 -0.0563596 -0.23464
260 1 0.198029 0.175611 0.0259968 0.389688 -3.36045 0.498608 -0.466615 -0.0636124
337 1 0.198095 0.19996 0.00142983 0.837335 -3.28954 0.29518 0.0483316 -0.615621
335 1 0.175094 0.200475 0.0250566 0.279947 -3.18268 -0.0597523 0.640059 0.053163
1861 1 0.251311 0.149753 0.0487843 0.881922 -3.31833 -0.0376604 0.166851 0.577711
264 1 0.249084 0.177206 0.0258726 0.731992 -3.29336 0.227677 -0.38679 -0.267101
1858 1 0.225191 0.175981 0.0515977 0.593356 -3.34904 -0.0739922 -0.351735 -0.341473
343 1 0.276161 0.20036 0.0245473 0.741743 -3.28713 -0.348678 0.0997358 -0.119081
262 1 0.274754 0.17564 -0.000667713 0.289375 -3.32709 0.0164285 -0.283363 0.216233
261 1 0.249946 0.151486 0.000405369 0.392041 -3.3488 -0.0236533 -0.169478 -0.127922
258 1 0.224054 0.176896 0.000450063 0.537467 -3.35886 -0.0931987 -0.614663 0.179472
267 1 0.328083 0.149481 0.023179 1.02636 -3.27995 -0.520506 0.0418453 0.451485
268 1 0.299516 0.175035 0.0241706 0.359301 -3.3552 0.345757 -0.0890687 0.0131719
347 1 0.325899 0.199662 0.0234861 0.275648 -3.29646 -0.316227 0.0417999 0.0729426
266 1 0.325399 0.175601 -0.00123255 0.204062 -3.32996 -0.11291 -0.0847605 0.28934
345 1 0.298559 0.200064 -0.00134663 0.413262 -3.34095 0.484852 0.372414 0.333877
271 1 0.376961 0.150958 0.0215059 1.23663 -3.28496 -0.708901 -0.22189 0.461536
272 1 0.350697 0.175063 0.0245178 0.425143 -3.30908 0.172894 0.109747 -0.322723
351 1 0.374447 0.201813 0.0250574 1.41595 -3.26854 0.321162 -0.936613 -0.427163
269 1 0.350009 0.150605 -0.00114663 0.313166 -3.31425 0.35116 -0.0608495 -0.294924
275 1 0.424474 0.148643 0.023649 0.581545 -3.33387 0.111307 0.102007 0.181323
276 1 0.400926 0.173828 0.0227562 0.735278 -3.32384 -0.0258516 0.629168 -0.00819621
355 1 0.424412 0.199054 0.0250247 0.421339 -3.3013 -0.0399421 0.0632486 -0.229727
273 1 0.401154 0.150078 -0.00189055 0.321742 -3.32671 -0.0023506 0.0907826 -0.199634
353 1 0.400465 0.200993 -0.00162661 0.572009 -3.30467 -0.251123 -0.85429 0.168225
274 1 0.425613 0.176719 -0.00172619 1.29847 -3.2822 -0.551586 -0.824445 0.106682
280 1 0.449187 0.172885 0.0245193 0.795181 -3.36567 0.229673 0.433527 0.00417596
278 1 0.476611 0.173485 0.000664729 1.05417 -3.30267 -0.422427 0.387101 0.222388
284 1 0.500057 0.175243 0.0254775 0.398767 -3.31774 -0.406038 -0.63883 -0.0785851
288 1 0.550293 0.174393 0.0258072 0.459326 -3.28707 -0.144578 0.475855 0.287431
363 1 0.522177 0.198063 0.0245295 1.49324 -3.28358 1.073 0.544946 0.202201
1889 1 0.600248 0.150105 0.0479583 0.59166 -3.3191 0.0252959 -0.00565594 0.163687
367 1 0.577307 0.198012 0.0267729 1.45237 -3.28231 -0.708587 0.172519 -0.117428
1886 1 0.575483 0.174981 0.0508971 0.323948 -3.37968 -0.0155762 -0.147615 -0.0743074
292 1 0.602975 0.174405 0.0249751 1.0474 -3.3231 -0.503397 0.0526053 0.131349
291 1 0.626929 0.149325 0.0231582 0.995383 -3.2693 -0.290254 0.239088 0.635321
1893 1 0.650236 0.148747 0.0489934 0.762774 -3.28616 0.0602457 0.48356 0.142526
371 1 0.626301 0.200771 0.0243024 0.780403 -3.34092 -0.391233 -0.00540012 0.45876
296 1 0.650992 0.176816 0.0264067 1.39941 -3.28428 -0.41695 -0.551985 -0.276674
290 1 0.625329 0.17541 0.000120674 0.323107 -3.30434 0.120238 -0.157534 -0.158969
295 1 0.675161 0.151706 0.0243056 0.817217 -3.34074 -0.240649 -0.571603 0.00835782
300 1 0.698586 0.176021 0.0236611 0.762276 -3.32628 0.381047 -0.186537 0.278979
377 1 0.698919 0.202179 0.00103104 1.39236 -3.31936 0.0137071 -0.576689 -0.391489
299 1 0.725689 0.149744 0.026294 1.00622 -3.31896 -0.375929 0.162633 -0.427152
303 1 0.776555 0.149813 0.0246532 0.489405 -3.3496 -0.263802 0.146203 -0.190692
304 1 0.749024 0.173923 0.0238917 0.558031 -3.34475 0.328086 0.227512 0.315252
1902 1 0.774777 0.173219 0.0492791 0.512294 -3.33773 -0.0544276 0.415446 -0.173742
379 1 0.724866 0.199435 0.0242618 0.394292 -3.3354 0.163513 0.114527 0.139803
383 1 0.773573 0.198875 0.0254188 0.335929 -3.35811 0.277583 -0.0149548 -0.0621851
302 1 0.776036 0.173508 -0.00109861 0.662527 -3.35223 -0.232587 0.313222 0.206537
298 1 0.724579 0.175624 -0.000790763 0.229746 -3.30554 -0.105888 0.137075 0.0722806
381 1 0.751153 0.2002 -0.000198155 0.641537 -3.30946 -0.37751 -0.344429 -0.0706405
308 1 0.80261 0.173477 0.0250571 0.815411 -3.31378 -0.606411 0.612149 -0.105385
1905 1 0.800581 0.150154 0.0486682 0.248042 -3.2893 0.0793198 -0.161263 0.233598
306 1 0.828684 0.175898 0.00138556 2.18766 -3.26015 -0.709716 0.00894526 -0.48303
311 1 0.874542 0.151055 0.0236386 0.561474 -3.34873 -0.105744 -0.187079 0.26334
312 1 0.851654 0.177217 0.0244988 0.837966 -3.2646 -0.10543 -0.552542 0.431543
315 1 0.92492 0.149287 0.025861 0.947621 -3.23465 -0.177398 0.381095 -0.0902221
1913 1 0.899633 0.150751 0.0491414 0.372624 -3.31111 -0.133145 -0.284669 0.154598
316 1 0.901301 0.175515 0.0248298 0.284845 -3.36988 -0.179499 0.0155466 -0.268864
319 1 0.974266 0.15073 0.025366 0.345646 -3.31311 0.414433 -0.178696 -0.318472
244 1 0.998575 0.174359 0.0273714 1.31003 -3.19397 0.323221 0.315864 -0.512692
320 1 0.950643 0.174667 0.0253546 0.373877 -3.33396 -0.0280732 0.427002 -0.286103
318 1 0.975666 0.175282 0.000164706 0.353716 -3.36544 -0.395943 -0.102961 0.0286138
399 1 0.977894 0.199113 0.0266112 1.75661 -3.27928 -0.808988 0.329602 -0.436683
1925 1 0.0492155 0.201076 0.0502833 0.57554 -3.2773 0.294395 0.0900106 -0.131765
323 1 0.0251569 0.199303 0.0261945 0.893271 -3.36516 -0.377577 0.173833 -0.416918
325 1 0.0496819 0.199575 -0.000223388 0.385641 -3.33072 0.0193136 0.243481 0.010426
328 1 0.0509537 0.224127 0.024085 0.450863 -3.28796 0.0356252 0.0780627 0.283887
403 1 0.025996 0.249885 0.0226466 0.491553 -3.31721 0.0716692 0.00127648 0.125203
322 1 0.0271534 0.226114 0.00031997 1.46382 -3.3096 -0.831094 -0.696242 -0.517268
324 1 -0.000794778 0.224804 0.0227731 1.13056 -3.32542 0.425962 0.127149 0.260677
405 1 0.0510208 0.248283 -0.00171181 0.958901 -3.2401 -0.0517905 0.968536 0.00902654
327 1 0.0733756 0.198786 0.0246645 0.878144 -3.32184 0.275721 0.340889 0.0370648
332 1 0.101027 0.225205 0.0262083 1.03907 -3.37991 -0.0910238 -0.0203828 -0.511484
407 1 0.0747593 0.249407 0.0235873 0.589764 -3.33999 0.247179 0.411887 -0.165097
1929 1 0.101511 0.199992 0.0483639 1.22226 -3.32459 -0.333901 0.156537 0.0166717
336 1 0.150885 0.225068 0.024672 0.454578 -3.31031 -0.280176 0.157702 -0.233998
1933 1 0.148828 0.200843 0.0496517 0.444326 -3.29529 -0.158055 0.0613002 0.327471
1930 1 0.126848 0.226727 0.0497486 0.62596 -3.28096 -0.381756 -0.0855628 -0.310279
340 1 0.20103 0.224452 0.0223895 1.49475 -3.28156 -0.591048 0.423054 0.649579
339 1 0.225297 0.200755 0.0249774 0.428735 -3.29232 -0.439618 -0.165385 0.13303
344 1 0.250334 0.223142 0.0239894 1.30478 -3.27621 -0.321105 0.558035 0.354853
419 1 0.225348 0.249637 0.0232444 0.493555 -3.33617 0.0672774 0.149663 0.211836
1938 1 0.222157 0.226103 0.0493717 1.14756 -3.34545 0.622663 -0.320147 -0.288245
2021 1 0.24845 0.250256 0.0491595 0.200506 -3.29154 -0.330133 -0.0494007 -0.0581765
1942 1 0.271868 0.226207 0.0495899 1.4092 -3.32998 0.571306 -0.518139 0.0582976
338 1 0.22532 0.226296 -0.000712861 0.648969 -3.27949 -0.0356094 -0.41081 -0.115965
342 1 0.273009 0.225401 -0.000760755 0.753926 -3.31019 0.912808 0.183626 0.219646
348 1 0.301239 0.225661 0.0253534 0.832138 -3.34314 -0.413528 0.0575224 -0.556639
425 1 0.300179 0.25008 -0.00138095 0.309464 -3.32236 -0.331956 -0.211081 0.439924
346 1 0.325901 0.225016 -0.0017193 0.213987 -3.36183 -0.347277 -0.0381774 -0.0372747
352 1 0.351039 0.224071 0.0214502 1.46528 -3.24211 -0.460139 0.629148 0.622787
350 1 0.377644 0.224585 -0.00111281 1.14797 -3.3023 -0.594551 0.305615 -0.463389
356 1 0.399991 0.225642 0.0242347 0.285528 -3.27947 0.370695 -0.0654634 -0.139814
354 1 0.424204 0.224136 -0.00134671 0.512106 -3.26352 0.136605 0.481509 0.380738
1957 1 0.448341 0.201185 0.049234 1.00464 -3.29413 0.219458 -0.294008 0.35904
359 1 0.473952 0.200583 0.0264566 0.728056 -3.35161 -0.00668954 -0.541181 -0.38608
360 1 0.447479 0.225124 0.0250897 0.753175 -3.3318 0.26857 0.242422 0.00532273
364 1 0.499693 0.223611 0.024304 0.461818 -3.2983 0.0549288 0.394007 0.109654
1958 1 0.474158 0.224016 0.0502272 0.406696 -3.25652 -0.241262 -0.033049 0.0562236
361 1 0.498933 0.200853 -9.95339e-06 0.891261 -3.29352 0.137542 -0.459284 -0.19989
1965 1 0.549713 0.199182 0.0494171 0.595324 -3.38193 -0.0993333 0.0665631 0.164392
2041 1 0.49798 0.247337 0.0514506 1.66319 -3.26928 0.394059 0.461307 -0.102417
1962 1 0.523852 0.223973 0.0503983 0.132675 -3.34658 0.282363 0.0725968 0.0757663
368 1 0.549713 0.224159 0.0257155 0.184971 -3.3575 0.0453104 -0.295148 0.0669491
362 1 0.526702 0.222971 -0.000678781 1.40867 -3.32949 -0.410957 0.529559 0.0438297
372 1 0.598198 0.223675 0.0273724 1.58144 -3.3108 0.527307 0.413694 -0.69603
447 1 0.574497 0.25021 0.0262081 0.443974 -3.32916 0.536479 -0.367594 -0.175495
449 1 0.600669 0.248693 -0.00147032 1.26171 -3.29023 -0.365484 0.302807 1.02971
366 1 0.57394 0.224627 0.00119414 0.533145 -3.35474 0.158136 0.109383 -0.0252628
1970 1 0.62744 0.225265 0.0490011 1.46668 -3.30544 -0.456484 -0.0552305 0.251948
376 1 0.651254 0.227255 0.0252128 1.29408 -3.28211 0.00346513 -0.15465 0.129266
451 1 0.624526 0.249521 0.0234414 0.761439 -3.31963 -0.402424 -0.0564427 0.318044
2053 1 0.649484 0.25136 0.0508571 0.803979 -3.26512 -0.268255 -0.538263 -0.553423
370 1 0.624601 0.223898 0.000790221 0.703032 -3.3472 0.0966341 0.19433 0.0215106
375 1 0.67455 0.200102 0.0261718 0.464361 -3.28218 0.086099 0.276955 0.0289911