ITEM: TIMESTEP
13000
ITEM: NUMBER OF ATOMS
32000
ITEM: BOX BOUNDS pp pp pp
5.1430743301499096e+00 7.5856925669850142e+01
-2.7105471184712897e+00 8.3710547118471368e+01
-3.7841767178999604e+00 8.4784176717899101e+01
ITEM: ATOMS id type xs ys zs c_csym c_peratom fx fy fz
4 1 0.014355 0.0393772 0.0292581 0.640949 -3.29464 -0.377635 -0.0833503 0.241401
3 1 0.0243256 0.00993237 0.0186724 1.54464 -3.23481 -0.196618 -0.0899865 0.544245
2 1 0.0250987 0.0324084 0.996523 0.359032 -3.26701 -0.671572 0.13318 -0.117877
1 1 0.997382 0.00746909 0.994846 0.593783 -3.35808 -0.124524 0.111992 -0.149965
78 1 0.987248 0.0378873 0.00420774 0.295172 -3.34271 0.121881 0.114936 -0.282668
5 1 0.0358927 0.00127841 0.98964 0.86454 -3.30214 0.223709 0.26846 -0.027837
8 1 0.0491979 0.0327326 0.0214328 1.67271 -3.22763 0.799899 0.828311 0.313799
12 1 0.089346 0.0311112 0.0143525 1.26309 -3.32665 0.0124165 -0.514635 -0.0126712
6 1 0.0608118 0.0284682 0.991312 1.00912 -3.25638 0.980936 -0.870657 -0.314304
7 1 0.0638481 0.00476199 0.016395 1.69425 -3.29553 -0.0336351 -0.349649 -0.660215
16 1 0.128868 0.0233232 0.00888902 1.0125 -3.3412 -0.13566 0.143545 -0.0563464
1614 1 0.153795 0.0222562 0.0351677 1.30524 -3.24387 -0.182986 0.758495 -0.859469
95 1 0.154711 0.0506331 0.00953719 3.60727 -3.2519 -0.120531 -0.851635 0.236964
1613 1 0.125992 0.999583 0.0305594 2.4364 -3.26868 0.146605 -0.174616 0.604971
20 1 0.16601 0.0125379 0.00576858 7.80908 -3.31832 0.231084 -0.275464 0.297682
99 1 0.196396 0.040373 0.00494464 7.72651 -3.28887 -0.611932 -0.602911 0.376642
24 1 0.222309 0.0127616 0.0112356 2.26398 -3.24203 -0.712349 0.148705 -0.916733
1618 1 0.190395 0.0115924 0.031612 6.40594 -3.32493 0.0730938 0.158345 -0.370924
1701 1 0.217471 0.0404641 0.0313624 8.03304 -3.2365 -0.272698 -0.669521 -0.388222
103 1 0.247972 0.0362305 0.00951127 6.69397 -3.29424 -0.0811017 0.206027 -0.169044
28 1 0.277173 0.0104652 0.0109498 6.56633 -3.23951 0.141174 0.559639 0.720848
1622 1 0.247334 0.0123093 0.0323217 1.38137 -3.19564 0.154633 0.304172 0.562557
1705 1 0.270358 0.0380383 0.0351944 2.41309 -3.2885 -0.0142764 0.0392628 -0.184326
32 1 0.325043 0.0179843 0.0109551 5.66365 -3.27223 -0.0474132 0.305853 0.0106079
107 1 0.295039 0.0393139 0.00816026 6.19065 -3.34434 -0.0657325 0.28042 0.272583
1626 1 0.301242 0.0152167 0.0381643 2.54387 -3.21187 -0.00944357 -0.00969607 -0.966478
1709 1 0.32412 0.0415516 0.0326482 0.816379 -3.2675 -0.178394 0.209386 -0.00874647
36 1 0.379224 0.0219915 0.0125973 0.987824 -3.27565 0.0412304 -0.825172 -0.348431
111 1 0.351616 0.0430278 0.00903573 0.772514 -3.27963 0.307454 -0.124449 0.254617
1633 1 0.379993 0.99909 0.036452 6.64182 -3.25813 -0.183496 -0.195529 -0.795375
1630 1 0.350041 0.0202374 0.036549 3.29799 -3.25321 0.507409 -0.207363 -0.364601
1713 1 0.379214 0.0412622 0.0363021 2.26931 -3.18262 0.104881 0.511043 -0.375686
40 1 0.437742 0.0216003 0.0114029 1.74753 -3.27697 -0.923577 -0.0805013 -0.679834
115 1 0.405105 0.0432876 0.0129615 2.43936 -3.26671 0.681289 -0.0704428 -0.570118
1634 1 0.409044 0.0211803 0.0362145 1.09376 -3.33668 0.399232 -0.193454 -0.254318
1717 1 0.437301 0.0448782 0.0331066 1.15485 -3.2979 -0.268002 -0.475419 0.357561
35 1 0.408559 0.997933 0.0115227 0.804916 -3.31153 0.397519 0.377053 0.0301424
1637 1 0.433611 0.994733 0.0354253 1.77385 -3.28574 0.372532 0.514255 0.0308784
44 1 0.491171 0.0204036 0.0101423 0.629506 -3.2646 -0.386825 0.32122 0.362663
119 1 0.463754 0.0462239 0.00954925 0.980729 -3.33625 -0.0448471 -0.26727 -0.118268
1638 1 0.462808 0.0198654 0.0322534 1.68498 -3.25033 0.255417 0.356533 1.05873
1642 1 0.519334 0.0226404 0.0342997 0.764134 -3.34156 0.259335 -0.00966283 -0.0216681
48 1 0.549777 0.0241807 0.0111762 0.751569 -3.30511 -0.304142 -0.0613555 -0.0446451
47 1 0.551568 -0.00150026 0.0333375 0.949241 -3.26724 -0.265391 0.770972 0.376642
52 1 0.580447 0.0254476 0.0345145 1.29848 -3.25318 -0.18708 0.202318 -0.498008
51 1 0.613184 0.00386768 0.0306471 0.571132 -3.28531 -0.178778 0.212313 0.331247
49 1 0.579882 1.0039 0.0116611 0.867564 -3.31717 0.211231 -0.257462 -0.314848
56 1 0.639725 0.0297575 0.0300841 0.260434 -3.36502 0.214717 -0.0617125 -0.399195
60 1 0.696615 0.0331587 0.0275565 0.35088 -3.31292 0.0625394 0.106785 0.115448
55 1 0.673367 0.00709066 0.0293505 0.695459 -3.31595 -0.632406 -0.0174584 -0.376043
1654 1 0.669673 0.0311715 0.0512093 0.284255 -3.33357 0.200286 0.201183 0.0194001
54 1 0.666881 0.0330525 0.00557958 1.15481 -3.35734 -0.327521 -0.484175 0.201269
64 1 0.75475 0.0385811 0.0274066 1.40943 -3.28049 -0.343416 -0.867554 0.0945423
58 1 0.724319 0.034381 0.00468553 0.36748 -3.34402 -0.0721662 -0.20025 -0.0784353
59 1 0.728026 0.0107942 0.0297399 0.942989 -3.28658 0.0854169 0.0933377 -0.549571
61 1 0.753266 0.0100759 0.00683226 1.73036 -3.32163 0.27339 0.411611 -0.650412
63 1 0.784756 0.0137887 0.0271499 0.809117 -3.34254 0.221385 0.523965 0.156854
68 1 0.811607 0.0403549 0.0280734 0.690897 -3.33583 -0.098957 -0.190595 0.16107
65 1 0.815014 0.0151754 0.00563316 0.682201 -3.25372 -0.92476 -0.0197631 -0.218737
62 1 0.780877 0.0346007 0.00319802 1.50004 -3.34012 0.298361 0.444236 0.165188
72 1 0.869979 0.0429491 0.0301348 8.08545 -3.31038 -0.661737 0.37305 0.223783
66 1 0.836951 0.0396226 0.00508101 2.41616 -3.26185 0.943389 0.538914 0.101518
67 1 0.841472 0.0176154 0.0285596 6.74641 -3.32365 0.00369624 0.424409 0.652215
69 1 0.870486 0.0193472 0.00767498 5.65882 -3.2577 -0.0524344 0.337945 -0.261297
70 1 0.897653 0.0445572 0.00929535 5.49423 -3.28162 -0.140059 0.26329 -0.470506
76 1 0.91399 0.0387362 0.0362879 6.71486 -3.30006 -0.106506 0.14857 0.187806
73 1 0.920469 0.0189065 0.0102346 5.4985 -3.30989 0.162751 -0.0548508 0.260092
71 1 0.882241 0.0146694 0.0360168 9.37415 -3.24604 0.460677 -0.207317 0.449133
75 1 0.947319 0.0217909 0.0333386 6.52788 -3.29228 -0.0888603 -0.116302 0.245035
74 1 0.948476 0.0447603 0.0104896 8.07055 -3.31373 0.290457 -0.0670939 0.233836
80 1 0.975367 0.0452424 0.0353746 6.81218 -3.31083 0.00158377 -0.237547 0.105194
79 1 0.986047 0.0150489 0.0262841 0.65656 -3.3381 0.0638247 -0.0634717 0.278193
77 1 0.958301 0.0138553 0.00197006 0.630899 -3.319 0.305235 0.0194459 0.242234
83 1 0.0424841 0.0649815 0.029688 1.53835 -3.25933 -0.764815 -0.150084 -0.0732803
81 1 0.0156278 0.0625273 0.00801731 1.7787 -3.29295 0.0247298 0.228919 -0.644816
84 1 0.0278085 0.0935847 0.038371 7.38057 -3.26079 0.824957 0.254568 0.806354
82 1 0.0385975 0.0912058 0.00565528 3.04099 -3.28267 0.89871 -0.403008 -0.0103212
89 1 0.089646 0.0541775 0.99116 0.974835 -3.28255 -0.10279 0.0401146 0.0757405
88 1 0.0667427 0.090036 0.0311524 1.45415 -3.28386 -0.273992 0.480362 0.1346
85 1 0.052188 0.0569731 -0.00214131 1.02577 -3.28707 0.059428 0.931899 0.531092
87 1 0.0779191 0.0590573 0.0251423 1.55868 -3.19757 0.0561364 0.180145 -0.914138
92 1 0.104453 0.0858806 0.0254366 1.00806 -3.26125 0.355898 -0.0171052 -0.254402
86 1 0.0793447 0.0850694 0.00267855 2.05225 -3.30356 -0.143276 -0.264187 -0.731134
91 1 0.115489 0.0564021 0.013626 2.66808 -3.25447 0.228947 -0.551859 0.764243
96 1 0.142728 0.0791126 0.0183876 1.02486 -3.28685 -0.0518908 0.373937 -0.348886
90 1 0.117096 0.0776607 0.992485 0.657797 -3.27868 0.378303 0.441292 -0.0514436
94 1 0.157629 0.0735167 0.984897 7.25244 -3.31931 -0.447208 0.141755 0.155961
1697 1 0.180968 0.0494316 0.0353978 1.0118 -3.30991 -0.373928 -0.349954 -0.235813
100 1 0.181503 0.0713824 0.0120658 1.35445 -3.21811 0.600617 0.477218 -0.466525
1698 1 0.208115 0.0750181 0.0357999 0.818358 -3.30438 0.0728934 0.109114 -0.0495884
104 1 0.222775 0.0634102 0.00693825 4.73221 -3.31271 -0.250551 0.388692 -0.22004
183 1 0.249054 0.0931254 0.00611609 2.32744 -3.27857 -0.061409 -0.288897 0.154849
1785 1 0.273892 0.0916436 0.0313953 2.89133 -3.31761 0.17891 -0.202253 -0.150563
108 1 0.267796 0.0636846 0.00602052 6.56432 -3.33219 -0.225631 0.138987 0.217756
1702 1 0.24367 0.0635852 0.0321441 7.62357 -3.2303 0.872272 0.244343 -0.142735
112 1 0.323506 0.0640869 0.00720537 0.471104 -3.30005 -0.179001 0.424497 0.508764
187 1 0.293588 0.0886479 0.00366857 5.93523 -3.26041 -0.298307 0.175885 0.545264
1706 1 0.295134 0.0630517 0.0308957 1.84883 -3.28985 -0.214319 0.273128 -0.155592
1789 1 0.320055 0.0883952 0.0286034 7.32707 -3.33498 -0.0168194 0.181273 0.198551
116 1 0.379833 0.0665098 0.00710771 1.54684 -3.27932 -0.673769 -0.168483 0.208833
1710 1 0.353561 0.0634547 0.0322235 2.74229 -3.28558 -0.474412 0.702976 -0.317509
1793 1 0.377115 0.0910844 0.0279647 1.58592 -3.30548 0.0701419 -0.295424 0.490462
191 1 0.348157 0.0911318 0.00788333 1.38854 -3.28111 -0.0359228 -0.513369 -0.296385
120 1 0.432632 0.0658086 0.00948328 0.883473 -3.29701 0.0903268 0.478402 -0.0988791
195 1 0.404517 0.088607 0.00559041 1.0461 -3.3068 0.246493 0.72841 0.357782
1714 1 0.405687 0.0671009 0.0324934 0.507289 -3.34503 -0.219603 0.133535 0.272951
123 1 0.518067 0.0435939 0.0101517 1.79847 -3.27842 0.412965 0.840317 0.199828
124 1 0.49143 0.0691968 0.0102359 1.18449 -3.29276 -0.444416 0.0778967 -0.310399
1718 1 0.460964 0.0693418 0.0332668 0.658527 -3.25703 0.305592 -0.200873 -0.245323
199 1 0.460157 0.0904849 0.00843353 0.477708 -3.4032 -0.195653 0.166735 -0.11097
1801 1 0.486246 0.0929248 0.0338516 0.931683 -3.31471 0.058807 0.180087 -0.334215
1722 1 0.517689 0.0701732 0.0315156 0.831508 -3.33661 0.339282 0.000559288 0.555428
1721 1 0.490478 0.0463621 0.0321911 1.00565 -3.33692 0.0423868 -0.420127 0.535804
127 1 0.575787 0.0474373 0.00952913 1.56913 -3.27231 -0.481961 0.816287 0.298206
128 1 0.546472 0.0704373 0.01062 0.904622 -3.35681 -0.150755 0.023146 0.0095662
1726 1 0.576278 0.0736084 0.0333327 0.949323 -3.30706 -0.240234 -0.155752 -0.507204
1725 1 0.548021 0.0458567 0.0343471 1.21479 -3.2924 0.14232 0.589905 -0.727922
131 1 0.607617 0.0502376 0.0305853 0.702782 -3.25404 -0.00805405 0.990219 0.719513
132 1 0.601307 0.0759982 0.0102662 0.812239 -3.29086 -0.25087 0.0330947 0.428387
1730 1 0.607224 0.0751897 0.0526285 0.794267 -3.33094 0.112171 -0.438975 -0.0432055
136 1 0.635475 0.0764367 0.0288716 2.02843 -3.28403 -0.0960158 0.232647 0.250988
1733 1 0.639253 0.0538206 0.052234 0.135547 -3.35747 -0.0407682 0.0802396 -0.018763
1729 1 0.580101 0.0498908 0.0537551 0.455 -3.33187 0.0108481 -0.113611 0.415088
1737 1 0.69799 0.0566633 0.0507778 0.47392 -3.36844 -0.158598 0.142654 0.0995416
135 1 0.666976 0.0563785 0.0294273 0.376902 -3.31302 0.00983983 -0.352768 -0.159716
140 1 0.695299 0.0817627 0.0278487 0.529613 -3.28545 0.227636 -0.430482 -0.0398345
1734 1 0.667695 0.0786583 0.0506786 0.33193 -3.30428 -0.145169 0.157656 0.0328155
137 1 0.693184 0.0569619 0.00541818 0.68993 -3.2479 0.922389 0.0885743 0.191514
139 1 0.722665 0.0579882 0.0267673 1.06822 -3.34271 0.228827 0.20793 0.124104
144 1 0.754305 0.0825967 0.0267192 1.56447 -3.19839 -0.962452 0.665672 0.175462
1738 1 0.725318 0.0840628 0.0478402 1.47499 -3.33534 -0.195968 -0.22949 0.101049
141 1 0.749157 0.0577076 0.00322055 1.77132 -3.26642 0.552208 0.261493 -0.0850382
138 1 0.725149 0.0822365 0.00512228 1.64243 -3.34169 -0.603672 0.100674 -0.122772
145 1 0.80965 0.0620998 0.00404044 0.585158 -3.32805 -0.380219 -0.126173 0.226526
143 1 0.779474 0.0609433 0.0273492 1.00656 -3.21411 1.22758 0.101389 -0.34451
148 1 0.811142 0.0862114 0.02887 1.00854 -3.30291 -0.785358 0.0854085 0.353369
142 1 0.778815 0.0826172 0.00481256 1.21727 -3.26444 0.465492 0.309501 -0.627795
147 1 0.840589 0.0658852 0.0307163 1.44924 -3.27864 -0.230382 -0.557417 -0.399191
149 1 0.864869 0.065675 0.00558544 1.67588 -3.31839 0.371685 -0.250615 0.603567
152 1 0.865176 0.0909356 0.0307422 1.03753 -3.3049 0.16652 -0.304436 0.267609
146 1 0.834826 0.0872654 0.00703808 1.45282 -3.27339 0.635872 0.284068 -0.575906
151 1 0.895143 0.0675451 0.0337851 6.06339 -3.29828 -0.0140446 0.00744949 -0.496192
150 1 0.893404 0.0895591 0.00874087 1.06724 -3.35112 0.296373 -0.0644834 0.304433
156 1 0.923616 0.0905622 0.0353788 3.0324 -3.26478 -0.916748 0.275267 -0.5786
153 1 0.924237 0.068001 0.00944347 1.77036 -3.29176 -0.353695 0.180156 0.330945
155 1 0.945224 0.0650868 0.0383779 2.49728 -3.2531 -0.204491 -0.132226 -0.824166
154 1 0.949663 0.0930062 0.0122629 0.958812 -3.22764 0.261051 -0.47958 0.318113
159 1 0.000114756 0.0705361 0.0368735 7.27193 -3.26203 0.471038 -0.321977 0.633473
160 1 0.971003 0.093094 0.0400425 1.86374 -3.31487 0.020939 -0.486635 -0.142646
158 1 0.00394557 0.0944166 0.0164526 7.73922 -3.21303 -1.05076 0.173525 -0.548088
157 1 0.978535 0.068477 0.0128622 9.44242 -3.29153 -0.770747 0.270134 -0.286024
163 1 0.0569662 0.119049 0.0454773 4.89417 -3.35689 0.107668 -0.204325 -0.474825
162 1 0.0611351 0.143139 0.0229267 1.43683 -3.294 0.0540951 -0.0707048 0.409143
164 1 0.0318125 0.143306 0.0440387 1.13094 -3.28942 -0.564407 -0.338618 -0.289077
161 1 0.0299331 0.11935 0.0178374 7.50422 -3.2906 0.467597 0.0282029 0.480859
165 1 0.0687825 0.116404 0.00677239 5.5712 -3.29264 -0.342321 -0.0301191 -0.26764
168 1 0.0869862 0.144447 0.0486076 1.20961 -3.29365 0.0608584 -0.284895 -0.11078
167 1 0.0938758 0.118406 0.0296313 7.09576 -3.2874 -0.311813 -0.143217 0.382004
172 1 0.118548 0.142688 0.0288867 6.34015 -3.29048 0.167431 0.271337 0.665967
166 1 0.0937232 0.144218 0.00535389 7.26085 -3.3042 -0.0399086 -0.335795 -0.203305
169 1 0.108014 0.110351 0.00106336 0.803133 -3.29875 -0.428555 -0.154157 -0.293837
171 1 0.133033 0.111453 0.0244014 0.462237 -3.30394 -0.0585804 -0.214059 -0.044242
176 1 0.15955 0.136205 0.0259596 1.09082 -3.29433 0.145737 -0.104963 -0.237389
170 1 0.133829 0.136538 1.00222 1.57607 -3.29851 0.07613 -0.0152481 -0.732859
173 1 0.144135 0.104108 0.992483 0.7525 -3.31743 0.52659 0.0939704 0.470525
174 1 0.172573 0.129071 0.995188 0.785585 -3.32678 -0.370542 0.326393 -0.215374
179 1 0.210183 0.0979769 0.0128747 0.67443 -3.3119 -0.000748898 -0.273039 -0.251375
175 1 0.17214 0.102509 0.0162981 1.96294 -3.29521 -0.452335 0.361074 0.46031
180 1 0.197692 0.129707 0.0193308 0.446496 -3.31076 0.096896 0.170714 -0.314836
1781 1 0.236854 0.100721 0.0359831 0.808123 -3.2966 -0.108227 -0.258299 0.291513
184 1 0.235316 0.122818 0.0137912 1.41429 -3.29901 0.326196 0.650789 -0.269164
1782 1 0.263659 0.124533 0.0370417 0.689505 -3.2711 0.21143 0.292035 0.0214307
188 1 0.276309 0.119155 0.0085601 0.772965 -3.29229 0.214298 -0.26096 -0.331522
1786 1 0.303476 0.120014 0.0332179 0.970685 -3.32155 0.260924 -0.268738 -0.291036
192 1 0.319543 0.112844 0.00482719 6.82378 -3.31013 -0.27864 0.221011 -0.000469297
267 1 0.306121 0.144159 0.00749001 0.686453 -3.28937 -0.41364 -0.100994 0.0537648
1869 1 0.332141 0.145096 0.0332348 0.615951 -3.19535 -0.0381256 -0.11329 -0.364365
196 1 0.374551 0.114783 0.00639765 0.671547 -3.28403 0.11428 0.0322157 -0.389361
271 1 0.344009 0.137983 0.00525969 7.37624 -3.31499 0.375155 -0.23847 -0.743845
1790 1 0.347618 0.114943 0.0295579 6.61708 -3.30398 -0.406608 -0.2629 -0.136651
1873 1 0.372778 0.13937 0.0268729 6.88265 -3.27852 0.372737 0.128418 -0.061924
1797 1 0.432478 0.090536 0.0305033 0.388118 -3.35379 -0.285625 0.340258 0.156412
200 1 0.429999 0.114516 0.00676122 0.21729 -3.3074 -0.307134 -0.260071 -0.159835
1794 1 0.402842 0.114533 0.0283732 0.241421 -3.28447 -0.0224166 0.0711814 -0.0932696
275 1 0.398612 0.140553 0.00366064 2.11445 -3.33793 0.716429 -0.543699 0.124161
1877 1 0.428227 0.139298 0.0282141 0.610696 -3.29048 -0.446943 0.219131 0.155969
1798 1 0.457333 0.117141 0.0296292 0.702315 -3.26373 0.0597406 -0.711621 0.554821
279 1 0.455357 0.137647 0.00774942 1.27827 -3.22047 0.23202 0.853966 -0.777427
203 1 0.516336 0.0942094 0.00901446 0.637493 -3.31507 -0.195789 -0.175493 0.0753009
204 1 0.486254 0.115118 0.008256 0.835206 -3.34138 -0.237232 0.154535 -0.0803037
1802 1 0.51132 0.116364 0.0318235 1.54746 -3.3107 0.110341 0.562181 0.306068
283 1 0.509106 0.141123 0.00890658 0.876695 -3.28992 -0.136307 0.59297 0.0295953
207 1 0.570089 0.0992433 0.0109909 0.248057 -3.3465 0.0155103 -0.0465109 -0.0521615
1805 1 0.543174 0.0961165 0.0326142 0.219277 -3.33293 0.0720072 0.00698307 0.145808
208 1 0.538601 0.121618 0.0100393 0.345952 -3.26223 0.181652 -0.620209 0.29894
1806 1 0.567246 0.122906 0.0362727 0.882695 -3.31826 0.217923 0.0985775 -0.661681
1809 1 0.596758 0.100865 0.0348347 2.79221 -3.22221 0.163654 -0.0492915 0.00238305
211 1 0.624351 0.103811 0.0140906 5.87506 -3.26857 0.561539 -0.148117 0.15184
212 1 0.596169 0.125688 0.0133857 0.802614 -3.32841 -0.818031 0.197556 -0.0605982
1810 1 0.620897 0.125584 0.0375007 6.06667 -3.2101 0.111874 0.796548 0.185283
1813 1 0.633728 0.0999769 0.0491225 5.71997 -3.30926 0.447365 -0.291483 0.218475
215 1 0.664743 0.10025 0.0269157 8.00679 -3.29736 -0.507267 0.806412 0.387457
1817 1 0.696049 0.106003 0.0493833 0.791651 -3.28599 -0.227784 -0.10333 0.106735
216 1 0.648845 0.132168 0.0180185 6.71646 -3.30514 0.130715 -0.550621 -0.0407939
220 1 0.690736 0.129235 0.0274656 6.63189 -3.26765 0.122835 -0.189143 -0.505908
1814 1 0.662641 0.126127 0.0488436 6.0549 -3.31581 -0.196688 -0.111687 -0.284431
219 1 0.720692 0.108637 0.0260388 1.95375 -3.26668 0.78128 -0.396643 -0.08212
1821 1 0.752602 0.10752 0.0499635 0.753995 -3.34347 -0.206194 0.308662 -0.354266
224 1 0.749597 0.130951 0.0244269 0.531207 -3.32652 -0.0399124 0.240606 0.290831
1818 1 0.72299 0.131511 0.0479866 0.802274 -3.32632 -0.0806864 0.0696189 0.210564
221 1 0.751295 0.106909 0.0022528 0.719282 -3.317 -0.015572 0.135374 -0.0901095
223 1 0.777686 0.108964 0.0252812 1.53395 -3.30328 0.27539 -0.115221 0.517748
228 1 0.807061 0.135119 0.0288348 0.546395 -3.31659 -0.228177 -0.410184 -0.241941
225 1 0.80615 0.110218 0.00562676 0.886484 -3.35898 0.419383 -0.313572 -0.274357
222 1 0.779608 0.133289 0.00469041 0.65462 -3.25633 -0.123539 -0.132909 -0.20767
227 1 0.836954 0.11288 0.0297969 0.643089 -3.29788 -0.411514 -0.366684 0.230241
229 1 0.865666 0.112958 0.00919727 0.398644 -3.28336 0.0882177 -0.056116 -0.0187117
232 1 0.861734 0.137818 0.0305516 0.745742 -3.36185 0.5288 -0.173213 0.278922
226 1 0.834618 0.13357 0.00670782 1.54666 -3.30099 0.297323 0.502776 -0.0961468
231 1 0.893233 0.114555 0.0356119 1.16536 -3.30855 -0.419685 -0.212021 -0.242602
235 1 0.946151 0.117813 0.0391184 1.71742 -3.20988 -0.756904 -0.213608 0.120769
236 1 0.915291 0.141091 0.0370099 1.7668 -3.24384 0.755719 -0.250584 -0.592583
233 1 0.921621 0.115967 0.0148011 0.976439 -3.33298 0.0242367 -0.172858 -0.460917
234 1 0.946244 0.141273 0.0163678 1.26815 -3.305 -0.0157944 -0.166155 -0.569827
230 1 0.894186 0.13784 0.0114897 0.878926 -3.31592 -0.394567 0.101775 0.0693585
239 1 1.00068 0.116904 0.0418949 1.17514 -3.32332 0.114 0.260732 -0.385854
240 1 0.973397 0.141171 0.0365331 2.31465 -3.28445 0.342735 0.157362 0.898728
238 1 0.00423913 0.142289 0.01774 0.812004 -3.29823 0.0413501 -0.339336 0.380987
237 1 0.972278 0.115952 0.0184411 3.62213 -3.21123 1.02655 0.409057 -0.899639
243 1 0.0606189 0.167735 0.0465087 0.342451 -3.30725 -0.438508 0.029888 0.192467
248 1 0.0612329 0.190984 0.0258996 0.421993 -3.33578 -0.196152 0.0886781 -0.355464
244 1 0.030499 0.190784 0.0454657 0.466924 -3.30676 0.256382 -0.244872 -0.0930494
242 1 0.0331932 0.190059 1.0014 0.841294 -3.33273 0.605854 0.24353 -0.330907
241 1 0.0312611 0.166465 0.0230592 0.777992 -3.31355 0.487812 -0.00711811 -0.17469
245 1 0.0651344 0.167073 0.0028573 0.566179 -3.34753 -0.36737 0.414946 -0.0806274
247 1 0.0905708 0.168489 0.0275737 0.767427 -3.27277 0.209081 -0.226967 -0.253178
249 1 0.118793 0.169923 0.00522057 7.14163 -3.28407 0.319184 -0.372894 0.0504518
252 1 0.118911 0.193358 0.0273363 0.704574 -3.3041 0.102798 0.228011 0.111805
246 1 0.0922112 0.193338 0.00529677 0.834067 -3.30808 -0.465114 0.060471 -0.236974
251 1 0.145838 0.166961 0.0281689 6.85831 -3.24956 0.776673 0.170855 -0.36528
256 1 0.173965 0.193402 0.0285092 7.3259 -3.28003 0.177098 0.268147 0.608813
253 1 0.158845 0.161935 0.998586 1.11524 -3.31967 0.425649 0.023576 0.226524
250 1 0.148664 0.193173 0.00632597 7.55421 -3.31581 -0.306904 0.214767 -0.429726
259 1 0.227957 0.156205 0.0190364 1.09357 -3.31818 -0.759157 -0.35368 0.176314
255 1 0.185848 0.162031 0.0257544 0.566585 -3.33556 0.261624 -0.169485 -0.32023
260 1 0.213572 0.187977 0.0243568 0.649123 -3.30192 0.0177839 -0.201659 0.295124
257 1 0.199273 0.15483 0.995212 0.336753 -3.36705 -0.424485 0.00417016 0.172513
254 1 0.18822 0.187508 1.00012 0.633439 -3.25978 -0.42673 -0.284198 0.250588
258 1 0.225121 0.179313 0.995447 0.639148 -3.2553 0.523003 0.361838 0.00650403
263 1 0.265345 0.148708 0.0131722 0.651612 -3.33584 0.148879 0.172015 0.0651131
264 1 0.252626 0.17934 0.0199144 0.865691 -3.29163 0.305008 0.57248 0.180004
268 1 0.293517 0.175477 0.0143003 0.230081 -3.31411 -0.284938 -0.313881 -0.101487
1866 1 0.31985 0.176914 0.0379498 0.363275 -3.25522 0.349463 -0.0160097 0.0702745
272 1 0.332197 0.168913 0.0102635 0.654355 -3.2877 0.0250875 0.0327011 -0.659031
1949 1 0.347623 0.2015 0.0401574 0.874455 -3.30159 -0.505013 0.354944 -0.596608
347 1 0.320648 0.199892 0.0139416 0.634765 -3.27188 -0.187572 -0.122124 0.393268
276 1 0.371127 0.162248 0.00364902 7.69044 -3.32454 -0.200734 0.226864 -0.0682408
351 1 0.357841 0.195552 0.00873465 0.843785 -3.32474 0.61295 -0.284548 -0.240396
1870 1 0.358645 0.172539 0.0322452 1.10155 -3.31954 0.533628 -0.424941 0.113374
1953 1 0.386275 0.19774 0.0320803 1.03892 -3.34444 0.0137707 -0.144478 -0.0415363
355 1 0.397869 0.186572 0.00229696 8.06201 -3.28448 -0.268509 0.55394 0.608427
1874 1 0.401442 0.164172 0.0272929 7.34013 -3.33189 -0.599512 -0.106197 0.269864
280 1 0.428698 0.164728 0.00585355 1.25659 -3.31842 0.082069 -0.169067 -0.160895
359 1 0.453393 0.191753 0.0054877 1.27674 -3.22355 -0.884234 -0.527848 0.69812
1878 1 0.452524 0.165536 0.0315354 0.62047 -3.24802 -0.0960139 0.244562 -0.723437
1957 1 0.424065 0.18999 0.0283215 8.29605 -3.33709 0.3348 0.227934 0.00481452
284 1 0.479578 0.165916 0.00654249 0.75958 -3.37386 -0.192913 -0.0653867 0.330315
1881 1 0.48102 0.142782 0.0298358 0.937947 -3.27511 0.289188 -0.176717 0.383506
1882 1 0.505616 0.167657 0.0318707 0.312439 -3.32369 -0.390281 0.106967 -0.057323
1961 1 0.475621 0.193194 0.0324038 1.24688 -3.30181 0.142332 -0.211453 -0.395149
363 1 0.505313 0.192803 0.00955337 0.610025 -3.32331 0.0134311 -0.0896897 0.0712836
287 1 0.560173 0.146279 0.0111348 1.80673 -3.29371 0.973517 0.148162 0.387041
288 1 0.533855 0.169742 0.00842106 1.07492 -3.30066 -0.435104 -0.1545 0.670918
1885 1 0.5337 0.145805 0.0331018 1.17043 -3.27341 0.354939 -0.240492 0.0106567
1886 1 0.5602 0.168916 0.0363074 1.66231 -3.32067 -0.012576 0.236427 -0.381877
367 1 0.554891 0.196316 0.0118257 2.35067 -3.26444 0.402212 -0.397965 -0.225488
1965 1 0.530265 0.191275 0.0337584 1.66406 -3.24944 -0.0647376 0.216428 0.365662
1889 1 0.592028 0.147896 0.0363752 0.985912 -3.32459 -0.339106 0.169961 -0.219686
291 1 0.619749 0.154375 0.0136613 2.55672 -3.26443 -0.409674 -0.941688 0.419229
292 1 0.586589 0.171617 0.0123556 0.791443 -3.35264 -0.157525 -0.0500368 0.221101
1969 1 0.582235 0.195194 0.0346281 2.24214 -3.28333 -0.143493 0.13264 0.566905
1890 1 0.613301 0.175392 0.0373876 0.434655 -3.30424 0.0752601 -0.220082 0.222096
1893 1 0.643629 0.153676 0.0415196 6.39055 -3.29353 0.337678 -0.089455 -0.782706
295 1 0.672594 0.157091 0.0179662 5.81715 -3.21881 0.278373 -0.170584 -0.367603
296 1 0.64391 0.176653 0.0157489 0.551995 -3.26131 -0.191318 0.644333 0.166862
1894 1 0.669622 0.178775 0.040114 5.68735 -3.25154 -0.349381 0.731293 0.101123
1897 1 0.688072 0.153559 0.0453543 7.18954 -3.23154 0.655682 -0.289522 0.773714
300 1 0.698638 0.181052 0.0191198 1.93385 -3.28508 -0.173136 0.103834 -0.0719646
299 1 0.720396 0.155403 0.0234388 2.02189 -3.29851 0.161999 -0.352424 -0.0251111
304 1 0.750865 0.180787 0.0224974 0.822122 -3.366 -0.174558 0.0756912 0.336617
1898 1 0.717704 0.178181 0.0465843 2.35123 -3.33178 0.377914 0.194733 -0.0369191
303 1 0.778362 0.157158 0.0253571 0.409788 -3.33261 -0.272551 0.153517 0.204129
308 1 0.805352 0.183251 0.0270157 0.638145 -3.25154 0.273983 -0.213177 0.397341
305 1 0.8073 0.158457 0.0045703 0.433699 -3.27714 0.230023 -0.0878039 0.210977
302 1 0.782619 0.18212 0.00276033 1.3315 -3.29251 -0.737725 0.250853 -0.245621
309 1 0.862811 0.162627 0.0073083 1.979 -3.26916 0.671274 -0.888928 0.770683
307 1 0.833179 0.15806 0.0294046 0.768754 -3.29048 0.207158 0.379304 -0.081324
312 1 0.861783 0.185082 0.0324337 0.58367 -3.25915 -0.268165 0.396746 -0.483581
306 1 0.835019 0.181821 0.0081089 1.36957 -3.24412 -0.253292 0.684258 -0.266471
311 1 0.887661 0.162861 0.0332367 0.958422 -3.30017 0.359843 -0.310523 -0.317612
315 1 0.947728 0.165878 0.037065 1.52132 -3.29113 -0.474798 -0.139733 -0.0345113
316 1 0.917056 0.185686 0.0366353 1.52423 -3.32193 0.25708 0.486972 -0.176884
313 1 0.920928 0.163768 0.0117805 0.805147 -3.32442 -0.382999 0.340929 0.62965
310 1 0.892726 0.187647 0.0120702 1.03879 -3.33706 -0.252891 -0.383641 -0.164633
319 1 0.00103767 0.164292 0.0425771 1.08537 -3.34707 -0.184865 0.253494 -0.127268
320 1 0.974376 0.191908 0.0387444 2.20021 -3.32323 0.0343694 -0.419013 0.481682
317 1 0.977049 0.165744 0.0157701 0.678345 -3.27432 -0.0418681 0.219284 0.350025
318 1 0.00409609 0.1894 0.0198782 0.316116 -3.33027 -0.261091 0.34841 0.0930038
314 1 0.948078 0.188727 0.015932 0.471148 -3.34668 -0.109689 0.349973 -0.205299
323 1 0.0316149 0.214224 0.02343 0.55839 -3.32097 0.0585939 0.304575 -0.356294
328 1 0.0598154 0.240326 0.0247618 0.458334 -3.29597 -0.623727 0.241573 -0.0191871
1922 1 0.028005 0.238392 0.0458098 0.61138 -3.31918 0.387949 0.0372116 0.312547
321 1 0.00721585 0.215719 0.996648 0.818448 -3.31691 -0.106035 -0.569077 0.640583
322 1 0.0341188 0.240417 -0.00117322 0.910419 -3.30331 -0.238994 -0.0847962 0.792532
325 1 0.0605427 0.216028 0.00339389 0.610646 -3.32741 0.202879 -0.300808 -0.167004
327 1 0.0856726 0.216439 0.0270416 1.42658 -3.26069 1.05807 -0.0997419 -0.496823
332 1 0.115057 0.24337 0.0281165 0.548437 -3.28776 0.379755 -0.252487 -0.00610201
329 1 0.118858 0.219221 0.0054013 0.573221 -3.3245 0.133885 -0.248216 0.303814
326 1 0.088859 0.242044 0.0048 0.352231 -3.2876 0.357205 -0.247121 -0.104982
331 1 0.143044 0.220102 0.0297854 1.44125 -3.33053 0.509192 -0.234461 -0.100268
336 1 0.173789 0.244814 0.0309289 0.773864 -3.29733 -0.244521 -0.0398876 -0.172272
330 1 0.147716 0.244356 0.0084795 0.443619 -3.32486 0.0119688 0.116101 -0.22654
333 1 0.17524 0.219725 0.00929552 7.2597 -3.32215 0.145961 -0.0777808 0.155274
335 1 0.202771 0.221058 0.0326424 7.19586 -3.32977 -0.448318 -0.428915 -0.00704134
334 1 0.205603 0.243818 0.0108242 6.89869 -3.2882 -0.301822 0.163293 -0.245839
340 1 0.231503 0.244255 0.0340255 7.40792 -3.28318 -0.486376 0.105258 0.0692392
337 1 0.214877 0.212301 1.00349 0.415748 -3.30037 -0.0103104 -0.130914 -0.508618
339 1 0.241181 0.213783 0.0253945 0.680156 -3.31199 0.316003 -0.326687 0.290417
338 1 0.242438 0.2384 0.00420999 0.662746 -3.26886 -0.0210408 -0.175465 -0.318097
343 1 0.280025 0.20471 0.0215619 0.836578 -3.33855 -0.301029 0.388268 -0.237701
344 1 0.269283 0.238938 0.0286528 0.808414 -3.2935 -0.129907 -0.250363 -0.395235
342 1 0.277762 0.230772 0.9986 1.82044 -3.32932 0.751772 -0.243527 -0.261862
341 1 0.253309 0.203618 0.996354 0.812841 -3.35112 -0.0913953 0.183898 0.122024
348 1 0.306849 0.228986 0.0217037 1.31269 -3.32852 -0.137381 0.445883 0.0708116
352 1 0.346434 0.224473 0.0159222 0.77132 -3.23901 0.215083 0.326255 0.645925
356 1 0.384772 0.222795 0.00970257 1.0922 -3.31425 0.229866 -0.292781 0.110047
431 1 0.369701 0.252107 0.0192423 0.771621 -3.29209 0.775341 0.151512 -0.342605
1950 1 0.372824 0.228439 0.0399245 0.348761 -3.3472 -0.16063 -0.195146 0.111518
435 1 0.411711 0.248304 0.0109139 1.42003 -3.34543 -0.0427108 0.0672395 0.343989
1954 1 0.411949 0.224465 0.0349293 0.693213 -3.32103 -0.175774 -0.11201 -0.341869
360 1 0.421822 0.213796 0.00444596 7.12868 -3.35692 -0.0559683 0.00559925 0.277413
2037 1 0.436083 0.252373 0.0378891 2.77199 -3.26003 0.154931 -0.871574 -0.549616
439 1 0.45074 0.238776 0.00695369 7.73805 -3.29497 -0.471627 0.536539 -0.336203
1958 1 0.45001 0.219163 0.0299769 7.16457 -3.24761 -0.407657 -0.932845 0.00615897
364 1 0.478228 0.21546 0.00512061 2.31942 -3.21309 0.062961 0.368279 0.73256
1962 1 0.502808 0.216626 0.0328429 0.671337 -3.33417 -0.394135 -0.00979584 -0.31289
443 1 0.498555 0.24242 0.00931553 1.5963 -3.31116 0.420015 0.0183371 -0.0818961
2041 1 0.473865 0.242252 0.0323325 6.55619 -3.25148 0.0594421 0.324499 0.187291
368 1 0.529442 0.21998 0.00984369 1.42483 -3.27127 -0.439928 -0.447116 0.0979435
1966 1 0.551874 0.217194 0.0369811 2.87871 -3.31743 0.563431 0.493094 -0.244776
2045 1 0.526631 0.242359 0.0329896 1.13051 -3.23834 -0.509465 0.124259 -0.0131327
447 1 0.554843 0.242868 0.0129464 0.519569 -3.29906 0.44962 0.324075 -0.326853
371 1 0.611661 0.197338 0.0156556 0.338946 -3.28496 0.393427 0.0535576 -0.521344
372 1 0.582421 0.218577 0.013684 0.572383 -3.32134 -0.192415 0.622604 0.0650559
1970 1 0.607447 0.221945 0.0379641 0.717794 -3.31415 -0.236799 0.111838 0.321336
2049 1 0.579435 0.243599 0.0374473 0.823405 -3.35903 -0.0190172 0.172081 -0.116519
451 1 0.611006 0.24511 0.0137855 1.3119 -3.18937 -0.907518 0.629305 0.538775
1973 1 0.636685 0.201202 0.0399753 0.537797 -3.32774 0.428236 -0.216693 -0.208927
375 1 0.66722 0.202794 0.0178024 0.212601 -3.36451 0.102103 0.117098 0.23034
376 1 0.63524 0.224533 0.0168796 1.26072 -3.24161 1.16766 -0.886722 -0.0993078
1974 1 0.662922 0.224853 0.0428069 0.382142 -3.34589 0.348323 0.0728732 -0.241775
2053 1 0.635156 0.245815 0.0406627 0.621129 -3.3293 -0.153731 0.460673 -0.064789
1977 1 0.693386 0.204215 0.0442481 1.20082 -3.2907 0.071947 -0.327961 -0.43265
379 1 0.721622 0.207003 0.020162 1.94513 -3.25965 0.697069 -0.275979 0.561606
380 1 0.693617 0.226969 0.0204424 0.499222 -3.30591 -0.427746 0.0050804 0.0157319
2057 1 0.689572 0.250045 0.0441834 0.848636 -3.30972 0.603787 -0.24638 -0.359624
384 1 0.752646 0.229018 0.0232953 1.12637 -3.2488 0.144895 0.139738 0.307529
1978 1 0.72052 0.227973 0.0449309 0.545677 -3.34107 0.161939 -0.0516956 -0.0693472