ITEM: TIMESTEP
11250
ITEM: NUMBER OF ATOMS
32000
ITEM: BOX BOUNDS pp pp pp
4.4318718023080965e+00 7.6568128197691948e+01
-2.6721440202351161e+00 8.3672144020235365e+01
-2.6860250241601022e+00 8.3686025024159605e+01
ITEM: ATOMS id type xs ys zs c_csym c_peratom fx fy fz
8 1 0.0634263 0.0320672 0.0327793 7.09153 -3.28096 -0.353413 -0.0162781 0.548864
4 1 0.0122566 0.0327038 0.0327162 0.443052 -3.22173 0.0397613 -0.155271 0.24596
3 1 0.0327418 0.00626533 0.0312562 1.3822 -3.29986 0.189156 0.00474709 -0.0236301
2 1 0.0380009 0.0336619 0.0100353 7.8021 -3.27045 0.169726 -0.384465 -0.344852
1 1 0.0113304 0.0069276 0.0053537 6.70701 -3.24692 0.259491 -0.0872753 0.485973
12 1 0.10113 0.0259993 0.026118 0.884609 -3.24458 -0.477771 0.0441678 0.249413
6 1 0.0738281 0.0242582 0.00395247 1.15673 -3.27224 0.38217 0.483993 -0.670432
91 1 0.125518 0.051406 0.0260709 0.916958 -3.23582 -0.0465652 -0.449825 0.349544
89 1 0.101206 0.0507261 0.00323776 0.427917 -3.27818 -0.142842 -0.358344 -0.511794
16 1 0.135389 0.0193076 0.0192435 7.42492 -3.24887 0.50531 -0.126842 0.048814
14 1 0.163436 0.017531 0.996064 1.45611 -3.28988 -0.123682 0.207902 0.323229
1610 1 0.123069 0.0255567 0.0517252 0.337096 -3.28694 -0.137945 0.0276406 -0.0118323
1693 1 0.149188 0.050725 0.0530168 0.380712 -3.32845 0.0266823 0.259396 0.0293496
1614 1 0.158619 0.0200489 0.0432989 6.74483 -3.28151 0.579951 0.00628671 0.753032
95 1 0.162882 0.0441253 0.0200116 5.93441 -3.22344 -0.183905 -0.0845202 0.098435
20 1 0.187001 0.0204177 0.0225105 0.650093 -3.28508 0.420482 -0.353071 -0.317985
99 1 0.213106 0.0439124 0.0205458 1.12781 -3.3163 -0.332773 0.515691 -0.0625923
1697 1 0.1854 0.0459678 0.0462716 8.3057 -3.34695 0.349639 -0.157889 0.208132
18 1 0.216033 0.0204363 0.998078 0.568486 -3.32634 -0.284353 0.580796 0.11134
24 1 0.240155 0.0229696 0.0249285 0.895327 -3.23874 0.202755 -0.296087 -0.238652
101 1 0.24024 0.0471045 0.996631 0.344986 -3.29196 -0.348289 -0.0929869 -0.164554
103 1 0.263947 0.048056 0.0214631 1.28146 -3.29455 0.285465 0.190599 0.71881
22 1 0.266487 0.0242263 0.00245907 1.70144 -3.27378 0.315412 -0.417925 -0.549041
28 1 0.294718 0.0250593 0.0251038 0.434718 -3.32131 -0.222781 -0.266532 -0.179151
32 1 0.350225 0.0261233 0.0245981 1.02508 -3.33277 -0.564705 -0.650035 0.17908
109 1 0.344132 0.0492911 0.00128276 1.54781 -3.29701 0.344701 0.142146 -0.415385
105 1 0.293612 0.0484751 0.000932371 0.834198 -3.2862 -0.248183 -0.512355 -0.348422
25 1 0.29562 0.00169392 0.00136455 0.560546 -3.35979 0.0921043 -0.161035 -0.0777693
1625 1 0.296147 0.999369 0.0491888 0.239497 -3.31451 -0.0459979 0.131769 0.0221357
26 1 0.322435 0.0249107 0.000570898 0.690093 -3.3079 -0.127722 -0.168766 0.339682
29 1 0.350965 0.000481845 0.00528928 2.72428 -3.26589 -0.237019 0.330165 -0.659155
30 1 0.374624 0.028253 1.00006 2.24278 -3.2219 -0.605786 -0.828679 -0.0632806
36 1 0.401576 0.0259984 0.0213956 2.09793 -3.26064 0.372746 -0.122913 0.774691
111 1 0.373477 0.0499777 0.0236239 1.02072 -3.25536 0.339343 0.0864979 -0.165914
31 1 0.379208 0.00179247 0.023816 1.40353 -3.24193 -0.267838 -0.43939 0.623567
33 1 0.406051 0.000457907 0.00308412 5.47142 -3.22379 -0.269094 -0.247029 -1.11235
40 1 0.455214 0.0231448 0.02344 0.78829 -3.24904 0.157052 -0.40327 -0.348071
115 1 0.429021 0.0479108 0.0227723 0.486153 -3.2879 0.290632 -0.00772543 -0.0647739
1634 1 0.428346 0.0219946 0.0473657 0.690745 -3.30725 -0.0750497 0.314349 -0.212915
1717 1 0.456799 0.0450772 0.0460469 7.56677 -3.32534 0.057683 0.473193 0.278455
34 1 0.429685 0.0246383 0.998776 1.0607 -3.24696 -0.171003 -0.597174 0.0713423
117 1 0.455783 0.0452266 0.997112 0.647595 -3.24586 0.586126 0.530126 0.109043
44 1 0.507955 0.0183278 0.0215041 7.60432 -3.32709 -0.218251 0.201431 0.141254
119 1 0.480945 0.0448129 0.0215538 7.03696 -3.26132 0.23463 0.19335 0.129257
1638 1 0.482127 0.0189951 0.0463667 7.08425 -3.26511 0.465917 0.676556 -0.178712
38 1 0.48262 0.0201023 0.998064 0.581111 -3.31487 -0.422132 -0.0437167 0.00441388
48 1 0.54484 0.0278892 0.029537 8.04764 -3.28626 -0.0386934 0.563821 -0.161943
47 1 0.569282 0.00503201 0.0299848 7.40777 -3.23127 0.335772 -0.565146 0.0683767
52 1 0.594137 0.0277558 0.0274336 0.342617 -3.28098 0.277993 0.224688 0.122658
51 1 0.620066 0.00304038 0.0285036 0.401381 -3.33432 -0.288793 -0.178798 0.119354
131 1 0.620925 0.0512734 0.0255833 0.531763 -3.32445 -0.0161597 0.299705 0.362445
50 1 0.621279 0.0273717 0.00318011 0.720366 -3.28925 -0.493161 0.0217604 -0.141747
49 1 0.592454 0.00238662 0.00464036 8.21083 -3.34965 0.677604 -0.116003 -0.141606
53 1 0.645203 0.00392673 0.00346209 0.352431 -3.28146 0.268544 -0.0468174 -0.00992406
56 1 0.64499 0.0265784 0.029969 1.3645 -3.26411 0.130167 0.0980814 -0.288166
60 1 0.698129 0.027856 0.0270073 0.850841 -3.31247 -0.0917627 -0.172514 -0.272953
1737 1 0.69661 0.0494127 0.0499907 0.584859 -3.27958 0.020368 -0.105415 0.243023
55 1 0.671515 0.00368757 0.0284241 0.714772 -3.29083 -0.38092 -0.384239 -0.210535
64 1 0.748658 0.0266216 0.0267015 0.382919 -3.33256 -0.118296 -0.0338397 -0.144382
58 1 0.723215 0.0268404 0.000756774 0.60806 -3.36978 0.0182236 0.489822 0.112457
59 1 0.723937 0.00287081 0.0241873 1.51187 -3.23415 -0.0294309 0.265137 0.736936
1658 1 0.722579 0.0249984 0.0510764 0.77023 -3.33136 0.225137 0.199609 -0.0624995
1741 1 0.750009 0.0504243 0.0481394 0.916957 -3.25632 -0.475378 -0.172809 0.737138
63 1 0.776097 0.00391324 0.0260244 0.839498 -3.34047 0.0215202 -0.313073 0.0889411
68 1 0.802787 0.0258321 0.0255233 0.506212 -3.30734 -0.275544 0.0235633 0.281803
145 1 0.803834 0.0496432 0.999328 1.81707 -3.29591 -0.567622 0.56264 0.848501
65 1 0.804638 0.00123623 0.00232175 1.58981 -3.2512 -0.68481 0.619085 0.33655
72 1 0.857395 0.0298952 0.0264865 1.97524 -3.27848 -0.353152 -0.404953 -0.389606
70 1 0.882684 0.0269006 0.00214922 1.50484 -3.31512 -0.10931 0.401023 0.306156
66 1 0.829103 0.0267474 0.00352134 1.0888 -3.28497 0.159911 0.237134 -0.404974
147 1 0.826636 0.0499229 0.0263749 1.62314 -3.30714 0.0882849 0.185168 -0.339154
67 1 0.830068 0.00198626 0.0265203 0.467697 -3.25242 -0.23848 0.232669 0.395924
1666 1 0.830522 0.0258436 0.0485519 2.17785 -3.25834 -0.649116 0.525623 0.611138
149 1 0.856058 0.0511912 0.000488244 0.735367 -3.34054 -0.0178162 -0.00260509 0.277621
76 1 0.907518 0.0306829 0.028753 0.730197 -3.33265 0.0975682 -0.156561 -0.320774
75 1 0.933745 0.0078931 0.0291904 1.85577 -3.28569 0.434556 -0.474652 -0.071693
73 1 0.912046 0.00545826 0.00387593 1.09522 -3.26101 -0.983531 0.200191 0.34045
155 1 0.935546 0.0533778 0.0270371 1.70759 -3.32009 -0.380257 0.319908 0.315777
74 1 0.936861 0.0302335 0.00473219 0.42421 -3.32472 0.0449166 0.212697 -0.0533331
80 1 0.961591 0.0297322 0.0297875 0.792861 -3.24294 0.183726 0.176533 -0.217679
79 1 0.990882 0.00672524 0.0318151 6.21388 -3.31512 -0.104299 -0.0187836 0.140249
78 1 0.987868 0.0332818 0.00812227 1.19018 -3.24915 -0.0311542 -0.169189 -0.12152
77 1 0.966139 0.00574005 0.0069191 6.1181 -3.35548 -0.219639 -0.0976794 0.158067
83 1 0.0347322 0.0572787 0.0337387 1.46348 -3.28613 0.502625 0.237954 -0.0377528
88 1 0.0659207 0.0802717 0.0359471 2.31308 -3.2461 -0.609931 0.383993 -0.552388
81 1 0.0125492 0.056214 0.00836852 0.559495 -3.26853 -0.126793 0.541203 -0.119806
85 1 0.0662759 0.0574718 0.0126797 8.68529 -3.28797 -0.790681 -0.266503 -0.676211
84 1 0.00733851 0.0824616 0.0291904 3.28242 -3.2581 0.516049 -0.218867 0.53614
82 1 0.0392242 0.0817374 0.0105689 1.38639 -3.35839 0.13448 -0.283727 -0.363847
87 1 0.0892838 0.0562109 0.0369504 5.68479 -3.2517 0.403482 -0.250311 -0.0982922
92 1 0.114098 0.0805564 0.0362123 6.65862 -3.26586 -0.0804735 -0.36374 -0.0900027
86 1 0.089261 0.0812895 0.010231 6.32231 -3.27946 -0.0920002 0.0300452 0.0450851
96 1 0.150128 0.0731449 0.0264613 1.93421 -3.27622 0.243771 0.756 0.179114
1694 1 0.176367 0.0791481 0.0523219 2.97829 -3.27376 -0.539031 -0.233742 -0.0921883
90 1 0.125825 0.074765 0.999697 1.85032 -3.28179 0.208709 0.153967 0.74882
100 1 0.187223 0.0688914 0.0215326 5.90826 -3.31015 0.153152 0.0925939 -0.491853
179 1 0.208674 0.0958621 0.0189832 8.63389 -3.28538 0.484866 -0.448236 0.0534744
1777 1 0.199254 0.104307 0.0492732 1.34623 -3.22262 -0.111808 -0.391195 0.264852
1698 1 0.211952 0.0712193 0.0448006 6.94791 -3.23949 0.0827823 0.0362397 0.0423598
98 1 0.211644 0.068128 0.992642 2.2362 -3.21855 0.308179 0.627601 1.49678
104 1 0.237439 0.0701702 0.0196118 0.503272 -3.33444 -0.397606 0.226419 -0.0544046
102 1 0.264886 0.0722333 0.995603 0.235989 -3.33805 0.0137366 -0.300507 -0.0332218
183 1 0.26275 0.0955115 0.017163 1.55763 -3.24054 0.191097 -0.394344 0.658128
1781 1 0.238777 0.0933471 0.0419028 10.2248 -3.3019 -0.394083 0.212277 0.24915
1785 1 0.286008 0.0956781 0.0453654 1.15429 -3.28556 0.387783 -0.423926 -0.575714
107 1 0.319506 0.0490141 0.0256723 0.857463 -3.27295 0.531072 -0.203821 -0.43496
108 1 0.291122 0.0714008 0.0223579 0.436187 -3.31291 -0.600795 0.221375 0.307045
112 1 0.34479 0.0737361 0.021952 1.45769 -3.30449 -0.256107 -0.0659211 0.244924
187 1 0.314086 0.0957992 0.0208093 0.790343 -3.33004 0.320546 0.164929 0.048857
1706 1 0.317801 0.0713075 0.0477608 0.433412 -3.25314 0.302609 0.0713389 -0.250601
1789 1 0.342392 0.0951887 0.0456161 0.670332 -3.32188 0.0951094 0.106129 0.100761
113 1 0.401846 0.0475181 0.998947 0.463161 -3.23038 0.34973 0.69015 -0.0368022
116 1 0.402805 0.0724492 0.0215666 1.24564 -3.30596 -0.409894 -0.135123 -0.0238309
1710 1 0.372574 0.0713566 0.0460643 0.59292 -3.25221 0.11372 0.0729136 0.330656
1793 1 0.398527 0.0952946 0.0469614 5.96165 -3.26341 0.40795 -0.0257628 0.0031024
120 1 0.454946 0.0721908 0.0220128 5.7608 -3.36968 0.182882 -0.100713 -0.228312
195 1 0.427198 0.0955953 0.0202032 6.93058 -3.27483 0.000327206 0.296109 0.0697221
1714 1 0.427986 0.0720213 0.0461107 6.29016 -3.31381 0.285555 -0.0985506 -0.0832259
123 1 0.517158 0.052237 0.0281659 8.34846 -3.23754 0.535028 0.0727211 -0.292392
124 1 0.493655 0.0774228 0.0295631 8.42062 -3.24114 0.0797299 -0.189444 -0.331597
1718 1 0.467858 0.0785211 0.0531729 8.47417 -3.29274 -0.210987 -0.409274 -0.0289664
127 1 0.57071 0.0529677 0.0256199 0.732507 -3.22751 -0.0893033 -0.228271 0.18627
128 1 0.545235 0.0758752 0.027748 7.26106 -3.17412 0.122082 0.447512 -0.507892
1726 1 0.571711 0.0788028 0.0489128 6.96011 -3.23135 0.220156 0.716738 0.00442526
126 1 0.568169 0.0786258 0.000800571 1.60042 -3.28935 -0.164819 -0.0462819 0.0133894
125 1 0.543716 0.0536256 0.00360668 7.15878 -3.30674 -0.06407 -0.110914 -0.0496529
132 1 0.596123 0.0757031 0.0225491 2.23353 -3.18065 -0.474732 0.341023 0.877159
1730 1 0.620123 0.078455 0.0490913 1.26074 -3.32898 0.0344055 -0.640656 0.267976
1809 1 0.599625 0.105056 0.0496897 6.47843 -3.23445 0.00204735 -0.0244394 -0.272076
135 1 0.671326 0.0510459 0.0255889 0.389058 -3.3246 -0.183061 0.0873807 0.0742289
136 1 0.647389 0.0778789 0.024412 0.978831 -3.25204 -0.130298 -0.60711 0.317625
140 1 0.697196 0.0759519 0.023406 0.536281 -3.296 0.091061 0.134199 0.00483642
215 1 0.673267 0.101095 0.0237804 0.654641 -3.20431 -0.12921 -0.325519 -0.184411
1733 1 0.646008 0.0506965 0.0524478 0.504362 -3.33359 -0.189579 0.330923 -0.41604
1734 1 0.674705 0.0744214 0.0495909 1.08752 -3.3194 -0.722217 0.384406 -0.0505967
1817 1 0.698872 0.101185 0.0484617 0.874491 -3.28879 0.5064 -0.30356 -0.259898
139 1 0.723283 0.0523232 0.0254489 0.718333 -3.2901 -0.13239 -0.492822 -0.362041
144 1 0.75115 0.0739214 0.0254108 0.744268 -3.23064 -0.441176 0.376825 -0.251797
219 1 0.723417 0.101341 0.0218972 1.35667 -3.35789 0.409469 -0.184721 0.409269
1738 1 0.72163 0.0737474 0.0483566 1.21604 -3.32983 0.103889 0.379775 0.236407
1821 1 0.749042 0.0961176 0.0500441 4.00329 -3.28344 -0.336849 0.775775 -0.82152
143 1 0.776241 0.0490849 0.0279132 1.84462 -3.26735 0.63067 -0.0379333 -0.936287
148 1 0.802196 0.0754864 0.0221381 1.38918 -3.30368 -0.0394223 -0.486717 -0.147961
223 1 0.774922 0.0987958 0.0239141 1.09016 -3.31754 0.198586 0.270137 -0.0738567
1742 1 0.777253 0.0738187 0.0472159 1.1692 -3.22369 0.0714454 0.0254994 0.290942
151 1 0.881323 0.0538808 0.0258823 0.777592 -3.2423 -0.223623 -0.343049 0.101046
152 1 0.853086 0.0745206 0.0216986 1.90435 -3.31463 0.0537718 0.282772 0.603788
150 1 0.883415 0.0782635 0.00293029 2.1692 -3.28193 -0.225892 -0.393537 -0.444148
227 1 0.827202 0.0982457 0.0213603 0.777713 -3.25711 0.740254 0.498783 0.0644786
1746 1 0.825949 0.07314 0.0476691 1.11608 -3.23209 0.487867 0.0637763 -0.0769782
156 1 0.907346 0.0763558 0.0274233 1.25676 -3.20538 0.492462 0.170104 -0.149757
154 1 0.932184 0.0776641 0.0033874 0.923747 -3.32197 0.138542 0.239502 0.230613
153 1 0.905979 0.0524268 0.00321068 1.26134 -3.34215 0.45594 0.043298 -0.245068
159 1 0.986584 0.0561656 0.0335688 1.48647 -3.25631 -0.0966361 -0.0860327 -1.04486
160 1 0.958738 0.0806531 0.0325612 2.46033 -3.32367 -0.206124 -0.196037 -0.973455
158 1 0.984953 0.0799791 0.00646725 1.00283 -3.24382 -0.356388 0.479589 -0.00223294
157 1 0.961293 0.0571776 0.00521761 0.997223 -3.29635 -0.0906406 -0.579486 0.0407049
165 1 0.064911 0.106739 0.00933122 1.05967 -3.32682 -0.108793 0.0721856 0.372793
163 1 0.0355192 0.103733 0.0322503 0.865532 -3.27678 0.361456 0.321113 0.10421
168 1 0.0603388 0.128581 0.0342439 1.76569 -3.34883 0.352598 0.0992104 -0.0485857
162 1 0.0357047 0.130277 0.010043 1.06804 -3.25994 0.267241 0.0305424 -0.619762
164 1 0.00986491 0.128537 0.0318228 1.21073 -3.23183 -0.192719 0.392367 -0.21191
161 1 0.0109458 0.106919 0.00787291 1.07581 -3.27237 -0.290809 -0.425857 -0.180094
167 1 0.0900779 0.105355 0.0352194 5.10313 -3.23469 -0.412908 -0.134665 -0.168427
172 1 0.111462 0.131254 0.0307423 1.11083 -3.20651 -0.226523 0.254205 -0.0772648
166 1 0.0879112 0.133652 0.00718226 1.12207 -3.25792 -0.022718 -0.0906334 -0.0427483
169 1 0.110175 0.106614 0.00927756 6.36142 -3.27138 0.549666 0.153133 -0.560509
175 1 0.172503 0.101025 0.0261117 0.690425 -3.26139 0.269437 0.0474355 0.157835
171 1 0.135424 0.104441 0.0320552 5.32081 -3.21643 0.492068 0.584776 0.349394
176 1 0.158389 0.133578 0.0311921 7.05442 -3.26787 0.684799 -0.299673 0.128378
170 1 0.137533 0.132706 0.00640825 7.1732 -3.28003 -0.622405 0.0203542 -0.384733
180 1 0.198677 0.127371 0.0250646 0.491173 -3.26182 -0.525237 -0.102249 -0.360231
1778 1 0.222926 0.127092 0.0472726 0.904859 -3.20758 0.52956 0.419274 0.487559
184 1 0.235822 0.11831 0.0184855 6.10359 -3.25328 -0.110281 0.0990972 -0.0794743
263 1 0.259102 0.142536 0.0176076 6.8714 -3.31382 0.248806 0.212773 -0.277938
1782 1 0.260844 0.118611 0.0430692 5.84647 -3.27343 -0.280704 0.436904 -0.467294
188 1 0.287114 0.119661 0.017373 0.671942 -3.28756 0.28675 0.147456 0.277457
1865 1 0.286531 0.14503 0.0415798 7.32905 -3.2941 -0.413695 -0.445006 0.0945772
1786 1 0.312111 0.119466 0.0422869 0.75154 -3.29807 0.163666 -0.115935 0.211437
192 1 0.343597 0.116934 0.0207343 2.57703 -3.33546 -0.0332487 0.439875 0.126444
267 1 0.313085 0.143684 0.0197765 0.880026 -3.26659 0.0716016 -0.185684 -0.881902
1869 1 0.337977 0.143072 0.0419498 0.93934 -3.29323 0.327241 -0.0407569 0.40264
191 1 0.373344 0.0939824 0.0247247 3.69395 -3.26257 -0.245881 0.456678 -0.833208
196 1 0.39329 0.122484 0.0197983 2.03271 -3.30937 0.306766 -0.116702 0.0232474
271 1 0.366011 0.146195 0.0191607 0.754944 -3.32345 -0.503379 -0.507275 -0.0170209
1790 1 0.371052 0.119832 0.0455075 6.52613 -3.27325 -0.632913 -0.330356 -0.00161678
1873 1 0.390224 0.145569 0.0451268 0.700944 -3.25705 -0.0876886 0.754289 0.00227215
1797 1 0.442762 0.102665 0.0483155 6.1851 -3.2573 -0.198704 -0.476028 0.0964147
200 1 0.445636 0.124668 0.0207481 1.762 -3.25233 -0.180557 -0.00439983 0.705015
1794 1 0.415296 0.123202 0.0468342 5.48991 -3.24703 0.148211 0.0276797 -0.207853
197 1 0.455707 0.0959368 0.996395 8.05316 -3.3205 0.110904 -0.313703 0.314139
275 1 0.417663 0.148253 0.020889 1.0379 -3.31103 -0.188348 -0.564123 -0.193102
1877 1 0.442656 0.145897 0.0457967 1.71352 -3.25004 -0.546424 0.384471 -0.0163889
203 1 0.519054 0.103268 0.023691 1.60292 -3.29735 0.241391 -0.0154853 0.231973
201 1 0.496431 0.101257 0.996277 6.97791 -3.2136 -0.460325 0.0331133 0.49219
199 1 0.472589 0.102333 0.0257257 6.51731 -3.26502 -0.200568 0.0592461 -0.387675
1801 1 0.495769 0.101486 0.0510432 0.886479 -3.28484 0.377784 0.0486925 -0.0842562
204 1 0.497096 0.127936 0.0263061 3.15961 -3.30438 -0.375441 0.114703 -0.640716
1802 1 0.520977 0.127883 0.0500305 1.30071 -3.23813 -0.19471 -0.175777 -0.57922
202 1 0.5198 0.129114 0.997837 1.24336 -3.25052 0.189371 -0.56625 0.143308
1798 1 0.468934 0.124429 0.0485562 0.740238 -3.21235 0.23245 0.092296 0.0479702
207 1 0.573814 0.104089 0.0258237 2.02764 -3.33254 -0.271314 -0.251385 -0.259386
1805 1 0.546138 0.103971 0.0483923 0.774836 -3.33788 0.249122 -0.0257557 0.0915447
208 1 0.545466 0.127382 0.023231 0.736168 -3.37208 0.142108 0.0047119 0.0581071
1806 1 0.57451 0.129025 0.0488806 0.472995 -3.32603 -0.113994 -0.0269326 -0.252279
211 1 0.621258 0.100358 0.0243596 1.78928 -3.21192 -0.180122 0.15294 -0.344616
212 1 0.602391 0.127202 0.0220545 1.80984 -3.33065 -0.170798 0.131996 0.364148
1889 1 0.601889 0.153 0.0472011 0.561613 -3.31586 0.22466 -0.537042 -0.095783
1810 1 0.630944 0.129982 0.0484349 7.15415 -3.28123 -0.198591 -0.29129 -0.386064
216 1 0.647682 0.123969 0.0199351 6.93936 -3.31236 0.188538 0.227001 0.072454
220 1 0.696635 0.124163 0.0239998 2.69636 -3.25766 0.388146 0.410772 -0.414724
1893 1 0.657608 0.152227 0.0458809 6.78673 -3.27325 0.229247 0.381231 -0.00681966
1814 1 0.672939 0.12388 0.0495067 4.99681 -3.25068 -0.181889 -0.0308219 0.104149
1813 1 0.64728 0.101048 0.0475892 1.43854 -3.26397 0.0526529 -0.229008 0.624821
295 1 0.674749 0.148966 0.0173534 6.7681 -3.28014 0.0995414 0.374896 0.379925
224 1 0.752575 0.124248 0.0220581 0.881503 -3.27473 -0.147804 -0.498547 -0.221263
1818 1 0.725602 0.126649 0.0455253 3.27747 -3.27221 -0.184725 -1.09867 0.060271
301 1 0.751551 0.147246 0.997267 0.80493 -3.24578 0.2877 0.297211 -0.537773
1901 1 0.751085 0.147883 0.0437353 0.8323 -3.17632 0.512638 0.472533 0.104447
228 1 0.803447 0.125795 0.0203229 0.761198 -3.23966 -0.0942685 -0.469281 -0.0684415
303 1 0.778355 0.1484 0.0216337 0.539441 -3.26216 -0.0143466 0.398779 -0.528223
1822 1 0.778764 0.124279 0.0449349 0.663543 -3.32838 0.011127 -0.403938 0.384113
1825 1 0.803482 0.0975421 0.0456222 0.503882 -3.2265 0.095373 0.659434 0.0182814
1905 1 0.805763 0.148676 0.0440457 6.86389 -3.25026 0.182075 -0.00498667 0.0175188
231 1 0.882622 0.100511 0.0255575 1.99545 -3.24568 -0.334034 0.215841 -0.474779
229 1 0.85643 0.100164 0.998066 0.686324 -3.24194 -0.796407 0.00152885 0.851099
232 1 0.856355 0.124263 0.0202465 6.01342 -3.22309 -0.502679 -0.159768 0.718615
309 1 0.858255 0.150781 0.9959 6.4851 -3.26016 -0.615872 -0.172061 0.392066
311 1 0.873723 0.152794 0.0276615 5.48944 -3.29245 -0.552334 -0.154958 -0.172965
1826 1 0.829166 0.123648 0.0434758 5.81443 -3.30315 0.372496 -0.287115 0.139539
235 1 0.928959 0.103261 0.0296636 1.4506 -3.35587 0.0382887 0.0403385 -0.407364
236 1 0.901991 0.129807 0.0282262 1.90246 -3.3506 -0.0413164 -0.395335 -0.19573
233 1 0.908524 0.10235 0.000644521 1.86385 -3.29905 -0.00594066 0.157837 0.384017
315 1 0.926635 0.153761 0.0260023 0.9563 -3.27171 -0.158661 0.168338 0.241706
234 1 0.930899 0.13061 0.003745 1.30854 -3.22315 -0.873363 -0.247322 -0.557997
239 1 0.980598 0.106723 0.0289937 2.0254 -3.26574 0.0908156 -0.319145 -0.442921
240 1 0.952069 0.129081 0.0269582 1.83403 -3.22594 0.395833 -0.0182267 0.822876
238 1 0.981614 0.129681 0.00682469 0.795006 -3.27151 -0.0623291 0.00608367 0.00638588
237 1 0.955759 0.104666 0.00304986 1.66523 -3.34264 -0.0986683 -0.100651 0.582827
243 1 0.0365642 0.154014 0.0314712 1.79177 -3.36324 0.0567775 0.14718 0.208394
248 1 0.0588798 0.18264 0.0258276 6.50635 -3.23849 -0.829781 -0.129036 -0.292968
244 1 0.00795663 0.176659 0.0319442 6.46051 -3.29681 -0.130986 0.1796 -0.135334
245 1 0.0616831 0.156501 0.00584119 0.970861 -3.22959 -0.597064 0.145162 -0.284889
242 1 0.0298163 0.178371 0.00524436 6.35761 -3.3147 0.00989683 0.536036 -0.0722494
247 1 0.0825208 0.157265 0.0299303 5.8686 -3.20834 0.212731 -0.338466 -0.227893
249 1 0.112302 0.159138 0.00351092 1.43449 -3.34037 -0.0309833 0.0514903 0.424901
252 1 0.107316 0.183983 0.0282637 0.715151 -3.33871 0.341415 -0.390226 -0.196753
1846 1 0.0796677 0.181935 0.0501734 6.49318 -3.25356 0.163357 0.383767 0.49772
246 1 0.0848776 0.18314 0.00198503 1.60496 -3.24123 0.0641294 -0.215196 0.30545
251 1 0.133723 0.158105 0.0305698 0.425461 -3.30447 -0.108196 0.267523 -0.193719
256 1 0.159118 0.183671 0.0300495 0.443786 -3.24375 0.610186 -0.271926 0.344157
253 1 0.160769 0.158043 0.00645708 6.37016 -3.32508 0.0332397 0.196271 -0.133621
250 1 0.138327 0.184958 0.00601029 1.37306 -3.25668 -0.405263 -0.0479741 -0.405549
259 1 0.222707 0.153687 0.0227914 1.44297 -3.28228 -0.206685 -0.304313 0.00504375
255 1 0.185909 0.156431 0.0312926 6.42925 -3.32972 -0.119833 0.607927 0.180146
260 1 0.210699 0.184714 0.0300918 6.41687 -3.31111 -0.105153 -0.322803 0.232553
257 1 0.196713 0.151298 0.998838 0.79573 -3.325 0.335778 0.135753 -0.150141
254 1 0.187138 0.183581 0.00505435 6.59641 -3.29487 -0.332531 -0.0595799 0.320198
258 1 0.223208 0.178164 0.99918 0.496081 -3.30745 0.290552 -0.160143 -0.166842
264 1 0.248652 0.175975 0.0238674 0.501228 -3.2908 0.289482 0.275331 -0.470786
268 1 0.285186 0.168469 0.0171836 8.0912 -3.3205 -0.304578 0.0737706 -0.0524998
1866 1 0.310704 0.16853 0.0407789 7.53403 -3.29391 0.451661 0.32658 0.248179
272 1 0.33672 0.170187 0.017248 0.503174 -3.30553 0.021503 -0.212724 -0.353511
1949 1 0.336907 0.194187 0.0398383 7.06158 -3.32268 -0.323404 0.205303 -0.246734
347 1 0.308233 0.194358 0.0149169 7.33469 -3.32257 0.506611 -0.0320089 0.587044
276 1 0.388456 0.170831 0.0187131 0.52454 -3.27511 0.572815 0.0947211 0.292846
351 1 0.363258 0.194059 0.0152514 1.30549 -3.30004 -0.0828652 0.313586 0.316262
1870 1 0.360548 0.169479 0.0413723 0.781602 -3.25773 0.373248 -0.0956925 0.157586
1953 1 0.387395 0.194664 0.0426357 0.47363 -3.3088 -0.125821 -0.111779 -0.310763
280 1 0.439898 0.17272 0.0173337 1.66055 -3.21417 0.55889 0.0916661 0.742096
355 1 0.414371 0.196159 0.0177964 0.39781 -3.30532 -0.153959 0.288066 0.59541
359 1 0.46678 0.194929 0.0184265 1.21343 -3.33548 0.0380089 0.530295 0.438226
1874 1 0.414355 0.170572 0.0431884 0.652151 -3.3569 0.250068 0.162582 0.376773
1878 1 0.464624 0.172363 0.0450567 1.27731 -3.26022 -0.188119 0.670686 0.0515105
1957 1 0.439903 0.195348 0.0438132 0.516732 -3.31633 -0.210647 -0.041078 -0.0989729
279 1 0.46779 0.151126 0.0217852 0.923752 -3.28272 0.155735 -0.274099 -0.574779
283 1 0.520783 0.152691 0.0207508 1.207 -3.30067 0.152608 -0.256798 0.300509
284 1 0.494669 0.174576 0.0214044 0.568041 -3.29499 -0.241603 -0.139315 -0.342013
1881 1 0.49028 0.151951 0.0467982 2.44432 -3.22213 1.04519 -0.790604 -0.137917
1882 1 0.520232 0.174592 0.0450368 0.327131 -3.29272 0.11717 -0.0439486 0.277967
1961 1 0.494469 0.197348 0.045309 0.479918 -3.31173 -0.361235 -0.0406912 -0.0784443
287 1 0.574636 0.150402 0.0223837 0.331391 -3.36114 -0.0385422 -0.112523 0.00466771
288 1 0.549072 0.175083 0.0220682 0.757302 -3.30839 -0.420083 -0.222695 -0.370448
1885 1 0.546764 0.15289 0.0468284 0.639194 -3.34841 0.371318 -0.362119 -0.201204
1886 1 0.576005 0.175213 0.0457517 0.470972 -3.30416 -0.431216 0.0716811 0.366142
291 1 0.62879 0.151424 0.0234508 6.05564 -3.20541 -0.150028 -0.256917 0.151913
292 1 0.602368 0.174411 0.0222733 0.808854 -3.2869 -0.32984 0.129339 -0.106227
290 1 0.625292 0.177195 0.995953 1.22788 -3.22513 -0.269813 0.0660875 -0.301823
296 1 0.651086 0.177014 0.0181721 1.89935 -3.26693 1.03385 -0.234387 0.258606
300 1 0.702387 0.172829 0.0166956 2.49391 -3.29384 0.218665 0.232032 0.7587
1894 1 0.681223 0.178679 0.0425646 8.00675 -3.25877 0.262952 -1.02725 -0.17033
1977 1 0.707105 0.200428 0.0400033 6.43926 -3.07484 -0.800181 -0.349097 0.96958
299 1 0.726907 0.146638 0.0194939 1.62628 -3.20527 -0.933883 0.453363 0.535112
304 1 0.751426 0.17201 0.0207644 1.06011 -3.32404 0.307607 0.0309256 -0.0379975
1898 1 0.725066 0.172842 0.0455794 4.83231 -3.34951 -0.223085 -0.0645254 -0.312896
379 1 0.731865 0.199137 0.0197018 1.55873 -3.15679 0.26893 -0.254144 -1.00887
1981 1 0.755877 0.196509 0.0435484 7.81604 -3.27183 -0.293469 0.00562575 0.322545
383 1 0.780984 0.197807 0.0194413 6.91605 -3.26515 -0.462791 -0.404718 -0.0336625
308 1 0.805214 0.172831 0.0179016 7.59938 -3.34024 0.0661956 -0.185683 0.377888
1902 1 0.779112 0.172493 0.0442809 5.90681 -3.2942 0.171559 -0.0782384 -0.270283
307 1 0.831872 0.148183 0.0185926 6.92915 -3.27694 -0.0595332 0.366499 0.302955
312 1 0.842342 0.178029 0.0270045 7.58873 -3.33439 0.158533 0.0539132 -0.0951421
391 1 0.872554 0.202655 0.0234858 1.81035 -3.20355 -0.556917 -0.113675 0.59175
1909 1 0.844772 0.152614 0.0510282 6.36426 -3.34757 -0.0860881 -0.0113765 -0.0165615
1910 1 0.870132 0.177789 0.0491673 1.01805 -3.23832 0.158625 -0.324092 -0.0387661
316 1 0.896343 0.17721 0.0253846 1.50422 -3.24474 0.632073 0.301545 0.27656
313 1 0.898946 0.155551 0.00220829 6.09386 -3.30271 0.198812 -0.344963 0.284445
319 1 0.97889 0.153555 0.029661 0.65408 -3.30359 0.243179 0.102591 -0.0780387
320 1 0.953184 0.178857 0.027024 0.577453 -3.22873 0.168217 -0.230534 0.0498958
1918 1 0.97571 0.177201 0.0518891 1.67418 -3.28292 0.677792 0.0152043 0.13039
317 1 0.95611 0.155155 0.00495071 0.932299 -3.28845 0.00504527 0.0754843 -0.291744
318 1 0.983481 0.180582 0.00582484 6.23714 -3.28782 -0.160198 -0.555214 -0.376918
323 1 0.0284889 0.20543 0.0260208 1.98779 -3.32757 -0.137767 0.0348958 -0.53387
328 1 0.0563509 0.230997 0.0254164 1.40265 -3.30017 -0.696214 -0.386309 -0.08532
324 1 0.000465311 0.232497 0.0244324 5.64535 -3.25559 -0.347332 -0.535153 -0.676315
1922 1 0.0227748 0.229863 0.0479998 7.67746 -3.24357 0.55618 -0.242379 0.355635
1925 1 0.0535118 0.206389 0.0491181 6.30775 -3.32146 0.0262364 0.0957993 0.0477811
325 1 0.055648 0.207565 0.00231913 0.759225 -3.29007 -0.316936 -0.367139 -0.119185
327 1 0.081793 0.206685 0.0245204 0.743345 -3.19503 -0.182392 0.508192 0.539016
332 1 0.107364 0.232807 0.0244714 1.09496 -3.28452 -0.25262 0.100652 0.49294
1926 1 0.0811499 0.230323 0.049289 0.611295 -3.27766 -0.360441 0.392902 0.30441
329 1 0.10814 0.208944 0.00403311 1.04211 -3.27243 0.859557 -0.191075 -0.585625
326 1 0.0807727 0.232601 -3.64486e-05 1.42534 -3.28042 0.421789 -0.355151 0.333393
1929 1 0.107663 0.21035 0.0481451 3.34026 -3.22457 -0.129543 -0.764871 0.873288
331 1 0.13458 0.208567 0.0287924 0.529015 -3.24752 0.21534 -0.0805322 -0.636098
336 1 0.160513 0.232111 0.0296632 0.335728 -3.2469 -0.237874 -0.291112 -0.129662
330 1 0.135833 0.231734 0.00418169 0.606498 -3.3609 0.210372 0.0693041 -0.427435
333 1 0.164415 0.209064 0.00676417 1.20574 -3.32742 -0.288415 0.0610801 -0.408649
335 1 0.18468 0.208297 0.0330311 1.4645 -3.29539 0.357007 0.00554663 -0.199428
334 1 0.188896 0.234074 0.00702101 0.676875 -3.25778 0.0479819 -0.305131 -0.201543
339 1 0.237004 0.207962 0.030782 6.2883 -3.24774 0.326279 0.248356 0.625008
340 1 0.211833 0.234843 0.0316892 0.948652 -3.30301 0.060082 -0.331311 0.104079
338 1 0.240047 0.234027 0.0108085 6.18472 -3.19925 -0.395215 -0.0162566 -1.20835
337 1 0.213497 0.209689 0.00813273 7.45976 -3.28626 -0.797887 -0.0540655 -0.39316
343 1 0.2732 0.203362 0.024714 1.19898 -3.25193 0.100302 -0.499813 -0.252821
344 1 0.264183 0.233673 0.0318796 6.38307 -3.24425 0.616992 0.196373 0.694282
342 1 0.276434 0.227138 0.999803 0.437226 -3.31923 -0.384765 0.0893306 -0.505513
341 1 0.248471 0.203993 1.00014 1.41715 -3.29696 0.335549 -0.411592 -0.328642
348 1 0.300553 0.225622 0.0225453 0.843801 -3.24054 0.235676 0.256907 0.51759
352 1 0.336776 0.218938 0.0178341 6.53504 -3.33562 0.201807 -0.0578124 -0.22724
356 1 0.388118 0.220969 0.015424 1.574 -3.32222 -0.125365 -0.511909 0.0425433
431 1 0.363523 0.246275 0.0183361 5.9643 -3.25535 0.205478 -0.575402 -0.270464
1950 1 0.364946 0.220241 0.040433 6.67133 -3.3311 -0.212471 -0.138547 0.191335
2033 1 0.389678 0.247054 0.0423511 6.54861 -3.27991 0.323717 -0.324247 0.417442
360 1 0.440576 0.22241 0.0177441 1.37364 -3.31578 -0.471254 -0.477619 -0.0131615
435 1 0.410258 0.245538 0.017258 3.44012 -3.2412 0.406905 -0.366883 -0.388486
2037 1 0.4372 0.241813 0.042327 5.53376 -3.2328 -0.106896 0.535615 -0.20797
439 1 0.466345 0.245127 0.0202021 1.18786 -3.2426 -0.419793 -0.326269 -0.430175
1954 1 0.412816 0.21943 0.0439138 1.21563 -3.28165 -0.377987 -0.254164 -0.540158
1958 1 0.465064 0.218251 0.0428625 1.03208 -3.32022 0.163028 0.232688 0.120087
363 1 0.520711 0.197527 0.0218019 0.701799 -3.27956 0.0981611 -0.103414 -0.476985
364 1 0.492934 0.220445 0.0207136 0.541902 -3.29442 -0.248114 -0.100383 -0.352619
1962 1 0.520414 0.222206 0.0424805 1.403 -3.26083 -0.134744 -0.201623 0.646905
443 1 0.519247 0.245761 0.0190634 0.453621 -3.35181 0.163713 0.274934 0.0345186
2041 1 0.492349 0.243135 0.0429489 0.508203 -3.29315 -0.047775 0.264784 0.325931
367 1 0.573339 0.198101 0.0233174 1.10619 -3.27535 0.0921033 0.204064 -0.390987
368 1 0.545465 0.221416 0.019886 0.45844 -3.27924 0.188198 0.172112 -0.0909328
1966 1 0.573368 0.222329 0.0441963 0.561945 -3.27873 -0.40557 -0.273596 0.291819
2045 1 0.546422 0.245108 0.0457272 1.39934 -3.23282 -0.381679 0.31144 -0.111354
1965 1 0.546413 0.198308 0.0460935 0.45566 -3.3582 0.161586 0.00598099 0.269208
371 1 0.62577 0.199132 0.0208428 0.567647 -3.28866 -0.0953278 0.659949 0.167754
372 1 0.598094 0.225193 0.0202635 0.977411 -3.31478 0.174552 -0.293419 -0.0192358
1970 1 0.625003 0.222944 0.0446484 0.58364 -3.31195 0.656912 0.394057 -0.481792
2049 1 0.595944 0.246656 0.0436427 0.776674 -3.31435 0.456958 0.709568 0.214317
1969 1 0.601549 0.199769 0.0456093 0.279058 -3.27793 -0.219654 -0.369174 -0.224619
1973 1 0.656258 0.19951 0.0441248 0.790861 -3.24424 -0.806883 0.528897 -0.207439
375 1 0.679809 0.201813 0.0183433 1.13013 -3.23229 -0.907977 -0.463064 0.0688603
376 1 0.651343 0.224286 0.0187353 0.805539 -3.3368 0.467324 0.272567 0.77836
380 1 0.7047 0.223899 0.0194206 0.514729 -3.26461 0.476899 0.727242 -0.139659