ITEM: TIMESTEP
19000
ITEM: NUMBER OF ATOMS
32000
ITEM: BOX BOUNDS pp pp pp
7.6919883541923681e+00 7.3308011645802480e+01
-2.9806721303203574e+00 8.3980672130314360e+01
-6.3727081700689752e+00 8.7372708170065039e+01
ITEM: ATOMS id type xs ys zs c_csym c_peratom fx fy fz
2 1 0.0408884 0.0238515 0.00220948 0.326373 -3.34881 -0.125682 -0.00213246 0.38932
78 1 0.00692323 0.0237189 0.0217586 0.120671 -3.36525 -0.0851825 -0.0282265 -0.0829848
81 1 0.0359127 0.0481232 0.023643 0.275848 -3.34452 0.145785 -0.291201 0.0359671
159 1 0.00233192 0.0474159 0.0425123 0.0896285 -3.35853 -0.0802322 -0.100741 0.110845
79 1 0.000907606 0.000211765 0.0439281 0.0897616 -3.3712 0.212979 0.0278904 0.0443632
8 1 0.0652926 0.0228994 0.0279952 0.229073 -3.34998 -0.01053 0.391318 -0.0687292
12 1 0.099442 0.0242046 0.00935429 0.352844 -3.34684 0.28421 -0.280417 0.0709784
87 1 0.0704399 0.0471482 0.00592424 0.0722691 -3.34957 -0.0243033 0.113096 -0.0303075
1689 1 0.0963356 0.0474888 0.0299216 0.256774 -3.35085 -0.0423636 -0.0980835 0.263187
1609 1 0.0940271 -0.000429292 0.0318557 0.13943 -3.33015 0.355552 0.107971 -0.0659952
1610 1 0.125041 0.0235728 0.034316 0.073993 -3.38412 0.0110538 -0.0628684 0.0496185
91 1 0.132459 0.0470151 0.0122891 0.429704 -3.34757 -0.120736 -0.0420981 0.0346497
16 1 0.15987 0.0220887 0.0159962 0.17846 -3.34658 -0.0313884 0.0853262 -0.00523033
1614 1 0.183867 0.0228382 0.0408014 0.0992502 -3.31868 -0.120464 -0.119601 0.17228
1693 1 0.155313 0.0467393 0.0378988 0.100761 -3.34652 -0.0665131 0.0909695 0.000966006
1613 1 0.15367 0.998843 0.0388826 0.134051 -3.34811 0.0801633 0.197365 -0.308063
95 1 0.187739 0.0470236 0.0189755 0.276946 -3.31914 0.11667 -0.0859042 0.0256455
20 1 0.216124 0.0222856 0.022875 0.345429 -3.32906 0.30852 0.0269084 -0.238084
1697 1 0.212734 0.0461842 0.0443985 0.273985 -3.34466 0.14609 0.190515 -0.0196563
15 1 0.188048 0.997897 0.0193157 0.139644 -3.34191 -0.0925033 0.0722875 0.117259
1617 1 0.212743 0.998814 0.0444871 0.282437 -3.34556 -0.093919 -0.0881832 0.064182
1618 1 0.242521 0.0218002 0.0477608 0.332533 -3.32551 -0.078282 0.276044 -0.102865
99 1 0.248093 0.0467156 0.0269461 6.02662 -3.37558 -0.0265084 -0.0699775 -0.0523486
18 1 0.251106 0.0223075 0.00429271 6.72146 -3.34141 -0.134031 -0.0488974 -0.0156428
24 1 0.274471 0.0214497 0.0283914 5.98569 -3.34779 0.184375 -0.0324947 0.0543585
22 1 0.294134 0.0285802 0.00188076 0.348179 -3.30597 -0.0192512 0.139552 -0.0715006
28 1 0.317727 0.0269152 0.0254758 0.15148 -3.29256 0.25808 -0.0367953 0.080206
32 1 0.360106 0.0322612 0.02318 6.3307 -3.33364 -0.0262422 0.0254971 -0.0103389
25 1 0.318581 0.00261537 0.0028236 5.57703 -3.30311 0.29094 -0.0805617 0.177566
27 1 0.343585 0.00184282 0.0262162 0.545308 -3.30961 0.132288 -0.0419217 -0.13752
31 1 0.384694 0.00444533 0.0196371 2.3824 -3.25554 -0.400146 -0.0266365 0.296435
36 1 0.400494 0.0338887 0.0210071 6.44648 -3.25479 0.00784292 0.198884 -0.158414
35 1 0.424069 0.00741551 0.0180995 6.98842 -3.22136 0.454364 0.10039 -0.0957497
40 1 0.430591 0.0343051 0.999864 8.42667 -3.32005 -0.0513165 -0.136849 -0.252613
39 1 0.453031 0.00629369 0.997366 7.70813 -3.26097 0.115035 0.112593 0.0712991
1638 1 0.454612 0.0287461 0.023484 6.24572 -3.21191 -0.0287503 0.0413501 0.0634661
1641 1 0.488854 0.014145 0.0341274 5.40279 -3.29217 0.134133 -0.0659985 0.051711
44 1 0.486682 0.0265489 0.00395241 8.52919 -3.31094 0.0911058 -0.0703743 0.0565898
43 1 0.527742 0.0226923 0.0151881 12.6487 -3.36048 -0.128187 0.02497 0.222552
1645 1 0.561011 0.00822962 0.0517752 7.02879 -3.16115 -0.236255 -0.0679836 -0.194159
48 1 0.564564 0.0331625 0.0332382 7.11641 -3.29263 0.154484 -0.169494 0.0199216
52 1 0.573164 0.0123785 0.0127984 5.21744 -3.29061 0.142048 0.0453606 0.247311
1650 1 0.599305 0.013046 0.0377856 2.49089 -3.28228 0.0796966 0.115204 0.0121666
131 1 0.602901 0.0364429 0.0173051 0.138565 -3.30537 -0.0497 -0.101398 0.00614677
1733 1 0.628643 0.0375479 0.041994 3.46926 -3.29923 0.0485723 0.149925 0.157145
56 1 0.6364 0.0151759 0.0229386 0.232459 -3.3073 0.15219 -0.0696519 0.05687
135 1 0.666532 0.0403316 0.0270719 6.55969 -3.25843 -0.276465 0.156491 0.298577
54 1 0.672953 0.0170354 0.00707267 0.136917 -3.33649 -0.101701 0.0191285 -0.133796
60 1 0.697908 0.0188978 0.0319813 6.32191 -3.24423 0.186592 -0.117827 -0.076922
64 1 0.732641 0.0196925 0.0149871 13.3824 -3.25454 -0.00632289 0.0100003 0.214557
139 1 0.702324 0.0419009 0.0119119 11.8013 -3.25824 -0.00226589 0.124164 -0.034875
68 1 0.790925 0.0218368 0.0213843 14.2026 -3.28705 -0.0638076 0.0375476 0.13032
143 1 0.759165 0.0443761 0.0190278 11.6586 -3.2893 -0.145925 -0.0321973 -0.0793133
1745 1 0.786684 0.0463428 0.0410336 6.74794 -3.26402 0.0881991 -0.264529 0.107915
145 1 0.794338 0.0448368 0.99989 0.17554 -3.37502 0.0408027 -0.0475424 0.00568324
72 1 0.850032 0.0229998 0.026999 0.449778 -3.35942 0.41711 -0.0965579 0.0238871
147 1 0.821439 0.0469826 0.0237466 0.317315 -3.328 -0.0454632 -0.273931 -0.0867655
149 1 0.856434 0.0460977 0.00580819 0.065256 -3.34319 -0.00371232 -0.107497 0.0326328
66 1 0.825642 0.0216872 0.00291681 0.104029 -3.35504 -0.0181129 0.14696 0.0109626
1666 1 0.816968 0.0225272 0.0453742 7.38764 -3.30309 -0.069956 0.046086 -0.0270515
76 1 0.912343 0.0225751 0.0341382 0.0937544 -3.34962 -0.0368482 0.208208 -0.0281062
70 1 0.887245 0.0228769 0.00925478 0.080693 -3.35094 -0.183229 0.0588355 0.096925
151 1 0.882633 0.0463585 0.0304616 0.100396 -3.36985 -0.128132 -0.0540299 -0.0888242
153 1 0.917391 0.0460948 0.0124106 0.0453457 -3.3716 0.018827 -0.00280132 -0.0977504
74 1 0.947642 0.0227044 0.0160834 0.145541 -3.34875 -0.187699 -0.0170902 -0.158118
80 1 0.97126 0.0238462 0.040452 0.135536 -3.34278 0.299923 -0.179359 0.0330099
155 1 0.943309 0.046707 0.0367837 0.15922 -3.33663 -0.334139 0.0544778 -0.00165324
157 1 0.976531 0.0465384 0.0181474 0.0668843 -3.33797 0.10432 0.00107525 0.00466696
158 1 0.00654111 0.0704847 0.0209235 0.0531514 -3.33622 -0.0508775 0.0980285 0.0142829
161 1 0.0357623 0.0941612 0.0235391 0.0803684 -3.35094 0.10097 0.013346 0.0875908
239 1 0.00128019 0.0940098 0.0421754 0.0418521 -3.356 0.0242045 -0.0119417 0.114906
30484 1 0.0406354 0.0714898 0.00224548 0.115434 -3.35002 0.0559839 -0.199068 -0.0152522
82 1 0.0665053 0.0706945 0.0269071 0.0983439 -3.35142 -0.0833978 0.0630099 0.0115447
92 1 0.101996 0.0709097 0.00923776 0.152976 -3.34117 -0.0844914 0.0255268 -0.136353
167 1 0.09582 0.0931848 0.0315641 0.496949 -3.34274 -0.00569049 0.38181 -0.271121
165 1 0.0715441 0.0947977 0.00545684 0.15505 -3.361 0.0445979 -0.0692617 0.120415
1690 1 0.126531 0.0706909 0.0339843 0.144233 -3.34813 -0.0637849 -0.00419969 0.191617
171 1 0.130168 0.0950897 0.0124431 0.0892535 -3.336 -0.0692515 -0.0109311 -0.0124617
96 1 0.160261 0.071669 0.0159423 0.129148 -3.30123 0.0189945 -0.0866713 0.039603
1694 1 0.184416 0.0718234 0.041421 0.192974 -3.31599 -0.170541 -0.268152 -0.169995
1773 1 0.154792 0.0948912 0.0378072 0.0730467 -3.35617 -0.129597 0.14804 0.0282981
175 1 0.189222 0.0958597 0.0194956 1.04188 -3.30287 -0.0875652 -0.111132 0.249306
100 1 0.218044 0.0709495 0.0236964 6.13672 -3.34126 0.28464 -0.108394 -0.0237119
1777 1 0.21339 0.0952514 0.0444831 0.781228 -3.33281 0.14044 0.176839 0.0507654
1698 1 0.244954 0.0710579 0.0483893 6.02149 -3.34453 -0.0474283 0.0275036 -0.156799
103 1 0.293459 0.051597 0.0249981 0.196406 -3.27303 -0.298894 0.146276 0.088607
104 1 0.268443 0.0761088 0.0238632 0.952361 -3.31978 0.0424954 0.0432277 0.00561648
108 1 0.310516 0.0830173 0.0210313 0.141587 -3.32121 -0.063396 0.0391342 0.0833788
107 1 0.334794 0.0579592 0.0231647 0.623388 -3.29242 0.289346 -0.0357664 0.231844
112 1 0.354412 0.0904141 0.016706 7.10155 -3.35495 -0.148965 0.0565087 -0.0245448
1706 1 0.335828 0.0823479 0.0447062 0.407467 -3.31374 -0.113182 -0.0456184 -0.115786
1709 1 0.358906 0.056473 0.0473609 0.681768 -3.27561 0.139959 -0.0682004 -0.0921681
1710 1 0.379441 0.090535 0.0403838 7.29593 -3.3406 -0.189877 -0.201371 -0.202813
111 1 0.377156 0.0636932 0.0224919 9.05992 -3.21154 0.123587 -0.166848 0.130697
115 1 0.403066 0.0579592 0.999421 6.21346 -3.25292 -0.0364651 -0.00450851 0.0634115
1713 1 0.400945 0.0605435 0.0448796 5.23817 -3.2597 0.0986549 -0.0747453 -0.0486794
116 1 0.395573 0.0871076 0.00886971 2.8792 -3.2723 -0.225408 0.18526 -0.109007
1714 1 0.420864 0.0861812 0.0326193 3.16867 -3.28462 0.0421208 -0.0455807 0.0827292
1717 1 0.428407 0.0562114 0.0235072 5.96816 -3.25787 0.193485 0.0550463 -0.059143
119 1 0.464786 0.0529415 0.00837112 9.97394 -3.19894 -0.211319 -0.0340335 -0.140575
120 1 0.436366 0.0802265 0.00523887 2.8171 -3.31185 0.193614 0.0666205 -0.0774844
1718 1 0.462986 0.0793759 0.0282339 2.68332 -3.32892 0.0738835 -0.153523 0.101321
1721 1 0.494104 0.0445568 0.0295781 5.01331 -3.24677 -0.240275 -0.0216695 0.184169
124 1 0.504282 0.0753053 0.0258398 9.88166 -3.26305 -0.03859 -0.267792 -0.0539786
123 1 0.534102 0.0529962 0.0298765 7.0506 -3.27453 0.0990687 0.0459897 -0.0240943
128 1 0.540578 0.0779042 0.00963783 0.33881 -3.28713 -0.0362886 0.0959487 -0.189472
1722 1 0.528883 0.0765562 0.0492252 6.34984 -3.21542 0.113742 0.0727547 -0.254441
1726 1 0.564472 0.0799215 0.0334592 0.231858 -3.29457 0.123584 -0.170911 0.0131616
127 1 0.570873 0.0566212 0.0136413 6.79269 -3.30475 -0.00570355 0.124656 -0.191755
132 1 0.600648 0.0819296 0.0161394 5.88143 -3.26908 -0.163827 -0.0973504 -0.0547884
1729 1 0.595793 0.0580127 0.0380187 1.68307 -3.33269 0.0571668 -0.0196263 0.0798718
1730 1 0.625791 0.0839182 0.0387124 10.2053 -3.20098 0.3357 -0.118393 0.179904
136 1 0.63287 0.0603518 0.0214519 6.33736 -3.26061 0.117491 -0.0907348 -0.0724215
1734 1 0.664666 0.0685064 0.0438573 11.2526 -3.28219 -0.156019 -0.170447 -0.129023
140 1 0.671684 0.0646144 0.00895135 9.41198 -3.24869 -0.134259 0.0159023 0.0921635
215 1 0.64177 0.0880978 0.00834036 7.29885 -3.29864 0.0181979 0.126935 -0.0493571
144 1 0.727481 0.067319 0.0152472 11.6597 -3.28483 0.139654 -0.112685 0.218366
219 1 0.696347 0.0896393 0.0130436 10.909 -3.27437 0.117777 0.139601 0.13884
1821 1 0.725766 0.0917442 0.0351872 6.69548 -3.26281 0.00725749 -0.00464824 -0.289863
148 1 0.790156 0.0693296 0.0196986 0.227302 -3.31786 0.181302 -0.136341 -0.0750675
223 1 0.760444 0.0913602 0.015629 0.332719 -3.31429 -0.0848714 0.222059 0.234067
1825 1 0.785865 0.0920125 0.0403045 0.0868107 -3.35421 0.0816815 0.208719 0.0797094
1742 1 0.755946 0.0695606 0.0378109 6.83197 -3.25316 -0.0245182 -0.329922 -0.0644607
225 1 0.795769 0.0909955 0.997019 0.575409 -3.36094 -0.0533768 0.246898 0.285816
152 1 0.852371 0.0696159 0.0264208 0.0600027 -3.35681 -0.0562197 0.0178501 0.0474483
229 1 0.8567 0.0928766 0.00402504 0.179261 -3.3658 -0.158963 -0.048004 0.12081
146 1 0.825822 0.0684867 0.00193533 0.0414356 -3.35234 -0.0118528 0.118382 -0.0188891
227 1 0.82193 0.0919063 0.0229808 0.190826 -3.36776 -0.136102 0.121593 -0.194917
1746 1 0.816503 0.0696904 0.0443077 0.0589043 -3.33826 0.0750258 -0.0623248 0.0106007
156 1 0.913181 0.0695912 0.0322625 0.300047 -3.3698 -0.119703 0.106103 0.288379
150 1 0.886278 0.0695387 0.00833792 0.080036 -3.34344 0.173314 -0.0092536 -0.0424148
233 1 0.916075 0.0933457 0.0111661 0.0775564 -3.34872 0.151568 0.0099064 -0.0309879
231 1 0.882607 0.0928903 0.0287142 0.176896 -3.34266 -0.178305 0.072679 0.255424
154 1 0.947307 0.0698537 0.0145203 0.0567786 -3.339 -0.114323 0.0922181 0.143372
160 1 0.972309 0.0701724 0.0394579 0.0502488 -3.35306 -0.0708488 0.136526 -0.00162529
237 1 0.976669 0.0936937 0.0179305 0.0905858 -3.35268 -0.090967 0.161343 -0.0857582
235 1 0.94199 0.0940058 0.0357743 0.0970882 -3.36738 -0.07297 -0.108413 0.0693682
241 1 0.0346471 0.142998 0.0232088 0.322161 -3.35544 -0.0616348 -0.232601 0.132181
238 1 0.0061544 0.118039 0.0205561 0.0603003 -3.36426 -0.0994266 0.078477 -0.0153273
30564 1 0.0411102 0.11852 0.00246904 0.112157 -3.3595 -0.124948 0.0214972 -0.0780812
319 1 0.000873325 0.141438 0.0420246 0.156259 -3.35794 0.0352773 -0.0710413 0.0333578
162 1 0.0654236 0.117668 0.0272081 0.0847808 -3.36599 0.102651 0.115727 0.00480303
172 1 0.123157 0.118681 0.0346152 0.155042 -3.34016 0.152326 -0.171404 -0.0756313
245 1 0.0937362 0.142477 0.0310184 0.0388163 -3.34042 -0.207403 -0.0973744 -0.178288
30643 1 0.0691064 0.142643 0.00593349 0.0596408 -3.33812 -0.031439 -0.0487993 0.0339161
166 1 0.10013 0.1182 0.00912325 0.152991 -3.33228 -0.22349 0.0548125 0.131001
249 1 0.128236 0.142622 0.0137567 0.473764 -3.30831 -0.142902 0.171894 -0.192135
176 1 0.158247 0.119029 0.0169766 0.685069 -3.33498 0.0703909 0.0193127 -0.0439025
255 1 0.184909 0.144958 0.018518 6.58416 -3.33028 -0.00444557 0.0282595 0.0648693
251 1 0.152336 0.143379 0.0374961 0.136566 -3.32448 -0.00555037 -0.0608311 0.248236
1774 1 0.182896 0.120145 0.041923 0.428832 -3.35021 0.112214 -0.251722 -0.209701
179 1 0.241409 0.0987302 0.0218825 2.58593 -3.2967 0.015047 0.237361 0.154721
180 1 0.213981 0.121861 0.0206743 6.44851 -3.32597 0.0276009 0.219233 0.124798
1778 1 0.23987 0.121054 0.0457053 6.78814 -3.31762 -0.274681 0.2219 0.0201168
1857 1 0.211289 0.144564 0.042978 6.83304 -3.32989 -0.0034313 -0.0525091 0.0529965
184 1 0.256209 0.130639 0.0179692 0.230565 -3.34166 -0.282293 0.198789 -0.089648
183 1 0.284238 0.107713 0.0187264 0.281002 -3.3134 -0.171964 -0.0873663 0.0959492
188 1 0.297824 0.139819 0.0155362 7.82655 -3.3299 0.129669 -0.103217 -0.150562
1782 1 0.280336 0.130181 0.0428639 0.289677 -3.32251 0.156832 0.0365524 -0.076176
1785 1 0.308719 0.106293 0.0438037 0.163222 -3.31213 -0.16142 0.0540277 0.057901
1781 1 0.26735 0.0991844 0.0471669 5.6489 -3.28468 0.0870519 -0.163018 -0.0648761
1789 1 0.35015 0.113738 0.0403527 6.41833 -3.30406 0.00117832 -0.0332762 -0.0570479
187 1 0.325122 0.114054 0.0165706 6.01099 -3.31231 0.100995 0.260245 -0.278252
192 1 0.35315 0.138543 0.0201612 6.50224 -3.27489 0.132504 0.189056 -0.246105
1786 1 0.322433 0.13813 0.0401639 5.03043 -3.30465 0.0196696 0.0273134 -0.0833528
195 1 0.423867 0.11158 0.0131087 0.549977 -3.29405 0.0678116 -0.587401 0.101093
191 1 0.382421 0.115983 0.0189483 7.10163 -3.32882 -0.0474297 -0.0437964 0.0316192
196 1 0.411551 0.13947 0.0222893 6.72048 -3.31475 0.0685968 0.127391 0.410014
1790 1 0.377703 0.137903 0.0439218 5.13844 -3.26246 0.178102 -0.0373108 -0.401467
199 1 0.466343 0.105498 0.0094112 1.16899 -3.32972 0.0869128 -0.0715194 0.0949114
200 1 0.453697 0.13331 0.0182982 0.470554 -3.29042 0.217414 0.0897255 0.108409
1801 1 0.493581 0.100618 0.039597 6.43383 -3.28838 -0.217611 0.151655 0.0715742
1797 1 0.451325 0.108605 0.0378858 0.654242 -3.33835 0.0103727 0.000757284 0.0197526
1805 1 0.532256 0.100703 0.0293536 1.14478 -3.26744 0.32807 0.229016 0.155822
208 1 0.537815 0.125265 0.00808077 5.49849 -3.26719 -0.064232 0.113454 -0.0672251
1802 1 0.498024 0.126348 0.0197545 6.467 -3.31356 -0.0829587 -0.108196 -0.0313613
203 1 0.509321 0.100289 0.00615762 6.73803 -3.28826 -0.32711 -0.000966577 -0.256699
1806 1 0.560088 0.127344 0.0323711 5.21791 -3.29782 0.125891 -0.321161 0.16241
207 1 0.569902 0.104732 0.0120629 5.52141 -3.3233 -0.0651758 -0.117504 0.149253
212 1 0.580775 0.133894 0.00117372 6.84188 -3.306 0.036778 -0.126281 -0.068626
211 1 0.610451 0.110817 0.00475594 6.26604 -3.32056 -0.0634694 0.0943733 -0.178928
1809 1 0.592586 0.103942 0.0371617 6.63347 -3.26765 -0.0124208 0.200942 -0.284777
1810 1 0.602877 0.133876 0.0271147 6.87554 -3.34154 0.129363 0.0298308 -0.119548
216 1 0.638726 0.135182 0.00647312 0.175917 -3.28993 0.0131712 -0.0424069 0.051694
220 1 0.668544 0.113023 0.00921501 7.271 -3.30508 0.0366647 0.0346207 -0.0176256
1813 1 0.635446 0.112805 0.0292863 8.67093 -3.31218 0.00115243 0.0403544 -0.0723992
1897 1 0.665161 0.137838 0.0306138 6.39491 -3.26565 0.0984174 -0.176209 0.0477998
224 1 0.729398 0.114537 0.0132528 0.134662 -3.34634 -0.145855 0.0293913 0.00738042
1818 1 0.695359 0.114766 0.0329062 6.32924 -3.25594 -0.0339236 0.189218 -0.542318
1901 1 0.724863 0.138777 0.0342543 0.117876 -3.34639 0.233481 0.0623002 -0.137149
299 1 0.698264 0.137565 0.0101626 0.271583 -3.33832 0.133631 -0.145959 0.287675
228 1 0.790559 0.11511 0.0185988 0.129245 -3.3598 -0.0139051 -0.0936435 0.213682
1822 1 0.754972 0.115483 0.0364887 0.300603 -3.356 0.264857 0.00297931 0.236788
303 1 0.760344 0.138279 0.0157221 0.12188 -3.34736 -0.244748 0.0807764 0.164545
1905 1 0.786188 0.139006 0.040691 0.109006 -3.35236 -0.209959 0.00776763 -0.0792614
232 1 0.851291 0.116246 0.0252343 0.0930858 -3.3589 0.0133396 -0.0730838 0.203359
307 1 0.820128 0.139437 0.0232208 0.205452 -3.33454 0.0959843 -0.0096787 -0.22278
309 1 0.85391 0.139613 0.00428978 0.142981 -3.35468 0.207609 -0.0362745 -0.0242377
226 1 0.825087 0.115544 0.00184939 0.17012 -3.3646 0.0451674 -0.0764847 -0.2675
236 1 0.911308 0.117204 0.0331666 0.251717 -3.33405 0.108354 -0.185648 -0.244981
230 1 0.886479 0.116447 0.00784777 0.157584 -3.35256 -0.101728 0.13136 -0.117538
311 1 0.880735 0.140044 0.0285966 0.0387953 -3.34204 -0.067011 0.0115377 0.0133807
313 1 0.915038 0.140616 0.0107742 0.0711014 -3.35608 0.0133 -0.106885 -0.170284
234 1 0.945696 0.116592 0.013599 0.223637 -3.37597 -0.011911 0.220615 0.0990157
240 1 0.971181 0.117751 0.038967 0.0663843 -3.37156 -0.011545 -0.00788792 -0.0120572
315 1 0.940065 0.140421 0.034786 0.225347 -3.34468 0.0962483 0.116395 0.201233
317 1 0.974895 0.142021 0.0178296 0.1885 -3.35282 0.0205425 -0.246182 -0.191069
321 1 0.0327645 0.189797 0.0248525 0.116019 -3.3352 0.0628773 -0.0736771 -0.233921
318 1 0.00348366 0.166396 0.0213273 0.224313 -3.34352 0.125124 -0.211153 -0.0784689
399 1 -0.00146622 0.189219 0.0428939 0.124528 -3.33291 0.0488201 -0.149968 -0.129525
30644 1 0.0384588 0.166533 0.00254022 0.0870131 -3.33974 -0.0408458 -0.145876 0.0798563
244 1 0.029362 0.166005 0.0456483 0.118777 -3.35305 0.0177314 -0.24753 0.0779864
242 1 0.0636837 0.16667 0.0276208 0.0843624 -3.34589 -0.0107776 -0.0997486 -0.0357766
246 1 0.120993 0.166839 0.0345659 0.19173 -3.34044 0.173109 0.048431 0.0657484
325 1 0.0923517 0.190831 0.0311942 0.131286 -3.29915 -0.0374405 -0.116581 -0.106217
30723 1 0.0673709 0.190617 0.00609107 0.153567 -3.34637 -0.0892004 0.126847 0.119747
30648 1 0.0972109 0.167152 0.00956192 0.0567473 -3.33763 0.100871 -0.0665055 0.0447333
30727 1 0.125746 0.191658 0.0128756 7.11571 -3.33806 -0.0197195 -0.119301 0.0483186
256 1 0.181532 0.166983 0.040738 7.14768 -3.35454 0.0277832 0.259305 0.0139429
250 1 0.154723 0.167957 0.0162294 7.07474 -3.37023 0.155857 0.136433 -0.00635139
329 1 0.151537 0.190762 0.0386305 7.77708 -3.36139 -0.00858808 -0.129742 -0.0788945
259 1 0.225668 0.154386 0.0153505 0.208264 -3.33846 0.340381 -0.0256547 0.0454107
260 1 0.196683 0.177512 0.0136516 0.0427953 -3.33172 -0.0310401 -0.0686783 -0.101913
264 1 0.239205 0.186971 0.0110034 7.47249 -3.35478 0.0601776 -0.075658 -0.130045
1858 1 0.223984 0.176694 0.0374497 0.138872 -3.31914 -0.148861 0.0466524 0.106712
1861 1 0.251795 0.153558 0.0402676 0.147341 -3.32405 0.120166 -0.0326183 -0.157061
263 1 0.269108 0.164199 0.0128836 7.51223 -3.33221 -0.153059 -0.0794155 0.0799088
1862 1 0.266219 0.186377 0.0355861 7.61986 -3.30594 -0.079484 -0.144969 -0.0486029
268 1 0.301379 0.188488 0.0201205 0.564434 -3.33227 0.0758902 0.0955949 -0.00169546
1865 1 0.293479 0.161775 0.0372856 6.53591 -3.30219 0.121541 0.155999 0.130045
267 1 0.331536 0.165837 0.0244041 6.15575 -3.32134 0.127305 0.0967926 0.0663675
272 1 0.36326 0.190143 0.028183 5.53145 -3.31419 -0.0151338 0.0635183 0.0898085
1869 1 0.36067 0.165989 0.0517671 8.92879 -3.3297 0.115239 0.260718 -0.10786
1866 1 0.330447 0.189403 0.0470221 2.36938 -3.28811 -0.20911 -0.0890664 0.0683797
271 1 0.383183 0.163179 0.0239135 6.06706 -3.23993 -0.296857 -0.39648 0.145783
273 1 0.415235 0.163381 0.00300912 6.96983 -3.33462 0.0561522 0.149379 -0.262327
276 1 0.4115 0.185738 0.0280048 6.15089 -3.25361 -0.0233118 0.0872075 0.103512
270 1 0.389102 0.18847 0.00431152 6.69076 -3.22451 0.0825277 0.0467953 0.0887987
275 1 0.442227 0.161916 0.0279033 7.8313 -3.32856 -0.283852 0.156251 -0.103407
280 1 0.442134 0.18737 0.00785849 6.24041 -3.32785 0.0541158 0.0819933 -0.0654241
279 1 0.457282 0.157318 0.998298 0.689221 -3.31193 -0.0304741 0.147628 -0.00832429
284 1 0.483296 0.180257 0.0058993 2.61413 -3.30285 0.25882 -0.276783 -0.0855573
1881 1 0.483611 0.155486 0.0256711 0.385301 -3.27535 -0.0619864 -0.0994363 -0.0110114
1878 1 0.468838 0.185156 0.0338168 7.48914 -3.32628 0.0131834 0.310262 -0.0561498
1882 1 0.510548 0.177907 0.0318763 4.51551 -3.30827 0.0712665 0.219538 -0.0450829
1885 1 0.52879 0.149326 0.0259352 8.33705 -3.35665 0.0719173 0.129897 -0.115495
1886 1 0.546784 0.179218 0.0160809 5.3744 -3.30021 -0.218759 -0.0173022 0.14662
283 1 0.502386 0.15039 0.999465 8.8391 -3.31647 0.0781014 0.206282 -0.051817
291 1 0.610492 0.157505 0.00415508 0.263718 -3.32593 -0.16795 0.16097 0.0453594
292 1 0.581372 0.178828 -0.00120624 0.664975 -3.31845 -0.164443 0.145936 0.174661
1889 1 0.573765 0.156461 0.0229364 7.72659 -3.30204 0.18771 -0.074117 -0.190044
1890 1 0.606122 0.182008 0.0272422 6.63677 -3.27993 0.0598199 -0.203838 -0.142499
1892 1 0.569273 0.179487 0.041642 7.63427 -3.24878 0.138812 0.123054 0.0634673
295 1 0.6683 0.159924 0.00957274 0.468174 -3.27996 0.076151 0.111516 -0.0354953
296 1 0.639745 0.181999 0.00742627 0.414497 -3.28333 -0.115104 0.0135813 -0.0709327
1893 1 0.633908 0.157827 0.0297721 5.38124 -3.28405 -0.186254 0.011136 -0.0249554
1894 1 0.658794 0.182814 0.0354286 11.0324 -3.29295 0.125338 -0.166104 -0.0737878
300 1 0.694688 0.162825 0.0326264 5.71847 -3.35619 -0.0833929 0.0862148 0.0237872
304 1 0.728522 0.161474 0.0132381 0.149746 -3.35051 -0.0215385 -0.00546438 0.147656
379 1 0.726045 0.187634 0.0341908 0.33604 -3.34761 -0.0914237 -0.391483 -0.0695212
377 1 0.698253 0.185084 0.0104808 0.714555 -3.34434 0.000773604 -0.123931 0.249433
308 1 0.78993 0.162064 0.0188561 0.135872 -3.3512 0.0296577 0.247682 0.096897
1902 1 0.755439 0.162742 0.0368335 0.0990646 -3.36742 -0.082242 -0.0344672 0.086782
383 1 0.758803 0.185594 0.0154487 0.185104 -3.33663 0.0272449 0.150834 0.139783
1985 1 0.784185 0.186549 0.0400407 0.120804 -3.35741 0.100895 0.164687 -0.257287
1906 1 0.815049 0.162857 0.0438743 0.0852311 -3.35889 0.123988 0.141742 -0.137843
312 1 0.850148 0.163326 0.0251455 0.0430892 -3.35254 -0.0809773 0.0220047 0.106565
387 1 0.819535 0.186435 0.0220701 0.075644 -3.37281 -0.133929 0.0895031 0.0499343
389 1 0.853597 0.187054 0.00364465 0.0491773 -3.34113 0.0788822 -0.0364867 0.119528
306 1 0.825105 0.163109 0.000787696 0.217841 -3.35464 -0.327374 -0.0336856 0.0692003
310 1 0.88421 0.163278 0.00702261 0.0740749 -3.36621 -0.00500751 0.17723 -0.0625033
316 1 0.909289 0.164413 0.0320349 0.0743815 -3.3553 0.135331 -0.0706496 -0.0954073
391 1 0.87931 0.187336 0.028488 0.0655751 -3.349 -0.0533481 0.0486924 -0.115373
393 1 0.91334 0.188516 0.0101818 0.145529 -3.34525 -0.00903514 -0.355496 0.0158853
314 1 0.944081 0.16477 0.0134498 0.101159 -3.36875 -0.00301294 0.0252849 0.0844493
320 1 0.969389 0.164437 0.0389438 0.0932962 -3.34891 0.0343981 0.124292 -0.031648
395 1 0.938825 0.187984 0.0351267 0.0680868 -3.34947 0.0115015 0.0345114 0.0245526
397 1 0.972807 0.189171 0.0179727 0.141204 -3.34692 0.0208601 -0.158827 -0.181675
401 1 0.0327251 0.236265 0.0242859 7.74245 -3.2975 -0.0608048 0.0103043 -0.0297539
398 1 0.00163572 0.212261 0.0214538 0.198893 -3.34042 0.0904326 0.177108 -0.136836
30724 1 0.0356117 0.212748 0.00256744 5.43546 -3.31366 0.0382337 0.0567188 0.140808
322 1 0.0617741 0.213562 0.0276429 5.3333 -3.28698 0.245468 -0.0484614 -0.0330447
326 1 0.122424 0.213329 0.0348402 9.24222 -3.32739 0.00455234 0.288084 0.030799
405 1 0.0746838 0.244263 0.0232307 12.4526 -3.3415 0.161367 -0.0850062 -0.0908698
409 1 0.108404 0.246317 0.00492052 5.40851 -3.25921 -0.0684214 0.12321 -0.242264
30728 1 0.0965177 0.21664 0.0110468 10.1382 -3.34458 -0.0882845 -0.152211 0.117156
335 1 0.166628 0.20014 0.0119552 7.08048 -3.26582 0.0787433 -0.0361734 -0.208444
336 1 0.164413 0.222875 0.032 6.8359 -3.26586 -0.233564 -0.00341039 0.0168049
330 1 0.139257 0.223666 0.00756599 6.30161 -3.26927 0.075917 0.105529 -0.0378718
411 1 0.13091 0.244733 0.0288807 6.80113 -3.26875 0.195128 -0.0169487 0.113287
1937 1 0.193699 0.199336 0.0355015 0.142788 -3.30205 -0.047389 -0.000343328 0.0286268
339 1 0.208681 0.209441 0.00853738 9.74359 -3.29821 -0.0122211 0.0603202 -0.0185886
340 1 0.204598 0.230731 0.0294025 8.42036 -3.30383 0.0799811 0.281622 0.0777747
344 1 0.24066 0.233644 0.0140132 0.229429 -3.31663 -0.0481593 0.0888742 -0.117991
1941 1 0.235843 0.208538 0.0328315 7.31614 -3.33179 -0.0696067 0.117888 0.149013
343 1 0.271478 0.211298 0.0167602 0.200073 -3.32101 0.0203841 0.131059 0.0902847
348 1 0.301101 0.23607 0.0221102 0.144383 -3.31982 -0.0853716 -0.292141 -0.077842
1942 1 0.267202 0.23341 0.0392432 0.345986 -3.33323 -0.117399 -0.0143605 0.110873
1945 1 0.298866 0.211578 0.044334 1.56473 -3.33189 -0.0545325 -0.0902433 -0.252065
347 1 0.331732 0.211965 0.0247893 0.357614 -3.3224 -0.202767 0.104024 0.127694
349 1 0.364202 0.213963 0.00631809 0.610635 -3.32523 0.0861379 0.0833555 0.075797
352 1 0.360121 0.236943 0.0298994 0.133452 -3.33551 -0.0604151 -0.135854 0.0573934
1946 1 0.326468 0.234919 0.0474806 0.339505 -3.32183 0.193474 0.0832887 0.228914
346 1 0.334152 0.237082 0.00431825 0.239531 -3.31901 0.0353537 0.139142 -0.0665795
355 1 0.415555 0.213724 0.00964625 6.77359 -3.22203 0.0665949 -0.390927 0.0532381
351 1 0.392072 0.214707 0.0340866 6.33337 -3.34096 -0.0479363 -0.0382987 -0.0662702
356 1 0.390981 0.238596 0.0102955 0.428051 -3.31437 0.0213302 0.0433079 0.0202483
1954 1 0.419971 0.238546 0.0382866 6.27832 -3.32716 -0.0594738 0.129591 -0.0527773
360 1 0.443653 0.235637 0.0141577 1.2309 -3.23264 0.0162566 0.0525977 -0.196047
359 1 0.472586 0.210323 0.0134699 7.04093 -3.31817 -0.204506 0.121449 0.367247
1957 1 0.438253 0.209456 0.0330459 6.09954 -3.27544 0.158054 0.00978517 -0.00203572
1958 1 0.466236 0.233167 0.0372742 6.22414 -3.28876 0.163811 -0.139819 0.281708
1961 1 0.496212 0.209267 0.0396885 7.70217 -3.34931 -0.0555345 0.0428052 -0.0789324
364 1 0.501779 0.233332 0.0194909 7.30524 -3.3258 0.0703456 -0.0237066 0.219824
363 1 0.513298 0.202055 0.0121973 6.59948 -3.32639 0.25567 -0.141007 -0.00315945
368 1 0.543781 0.224299 0.0170252 6.57835 -3.30583 -0.133536 0.0657023 -0.0851937
1965 1 0.538078 0.201801 0.0375461 7.25365 -3.30375 0.189617 -0.175271 -0.1166
371 1 0.609907 0.203629 0.00273712 0.261638 -3.30926 -0.00997217 0.188578 -0.0811927
372 1 0.578598 0.225808 0.998519 0.178529 -3.31857 0.287415 0.0293048 -0.0359931
1969 1 0.575815 0.203256 0.0201263 6.72192 -3.29236 -0.0374283 -0.220834 0.055438
1970 1 0.60396 0.227673 0.023641 6.43636 -3.24848 0.0599374 -0.00825232 -0.0544532
447 1 0.572587 0.247094 0.0216959 6.3555 -3.24426 0.053314 0.213928 -0.140691
375 1 0.667495 0.206289 0.00879923 0.899657 -3.34339 0.122551 0.0890326 0.00098468
376 1 0.640104 0.229854 0.00473694 1.31042 -3.30003 -0.34509 -0.105025 -0.111759
1973 1 0.632916 0.206531 0.0279961 7.17806 -3.26354 0.134973 0.0839249 0.208864
455 1 0.666325 0.233669 0.0265026 0.782432 -3.23326 0.195437 -0.124783 0.134214
2053 1 0.633119 0.235749 0.0435064 8.08318 -3.26711 0.046008 -0.00508667 0.106993
380 1 0.695202 0.209956 0.0310557 0.825209 -3.29318 0.0530739 0.0662858 -0.326026
378 1 0.728537 0.209463 0.0120038 0.0865234 -3.30189 0.0350432 -0.113504 0.243856
459 1 0.724709 0.235095 0.0331343 0.211703 -3.34456 -0.0709477 0.0451392 -0.16972
457 1 0.698635 0.231858 0.00870045 5.74053 -3.28492 0.063391 0.0240746 0.0275001
384 1 0.753923 0.211462 0.0366498 0.151129 -3.339 0.287423 -0.106945 -0.0349842
388 1 0.787771 0.210014 0.0176032 0.270505 -3.37012 0.0883314 0.066013 0.316659
463 1 0.783956 0.235642 0.0392221 0.126046 -3.32238 -0.06328 -0.242101 0.0925677
461 1 0.75762 0.233141 0.0148145 0.328587 -3.33182 0.0450542 0.261629 0.0113664
392 1 0.848911 0.211123 0.0250937 0.0456926 -3.3549 -0.0537531 0.0195988 -0.0447173
467 1 0.817144 0.234522 0.0217619 0.136907 -3.35798 0.212516 0.0138898 -0.180858
1986 1 0.814237 0.210941 0.0428729 0.0676023 -3.36011 -0.0859126 0.0946355 -0.194518
469 1 0.852208 0.234694 0.00349215 0.0682013 -3.36719 -0.0300767 0.113993 0.0147101
386 1 0.823113 0.210832 0.000938103 0.183069 -3.33675 -0.210896 0.0572878 0.0493994
390 1 0.882494 0.210534 0.00633615 0.167394 -3.35537 0.00080393 0.242016 0.102768
396 1 0.908133 0.21183 0.0314475 0.0609434 -3.33172 0.0367239 0.0354225 -0.0421279
471 1 0.878382 0.235632 0.0270565 0.115192 -3.36757 -0.0960062 -0.0168579 0.0690905
473 1 0.911892 0.235324 0.00879866 0.177159 -3.34452 -0.0666819 -0.100699 0.20205
394 1 0.941866 0.212011 0.0143038 0.183845 -3.33742 0.206308 0.00910603 -0.226477
400 1 0.967535 0.212544 0.0388358 0.0587264 -3.33299 0.139376 0.0221565 -0.0851361
475 1 0.936822 0.235661 0.0347397 0.105605 -3.34522 0.115043 0.114417 -0.0476634
479 1 0.998128 0.236376 0.0422123 0.0460413 -3.34236 -0.0906619 -0.144457 -0.0955218
477 1 0.971009 0.236575 0.0176756 0.238658 -3.3463 0.126122 -0.204444 -0.134862
402 1 0.0443105 0.267357 0.0194751 11.3037 -3.31341 -0.0606712 0.186864 0.05373
481 1 0.0137248 0.291554 0.0155451 12.6848 -3.32504 -0.105874 -0.0115958 0.0909979
478 1 0.00215642 0.259234 0.0209278 7.7232 -3.3012 -0.11939 0.12317 0.0506872
412 1 0.10224 0.26899 0.0259542 4.26161 -3.23764 0.0193869 -0.367645 -0.296057
406 1 0.0773996 0.267626 0.00159336 7.69822 -3.30023 0.0622855 0.173891 0.0576273
487 1 0.0732363 0.291512 0.0224201 5.21196 -3.28486 -0.129927 -0.0531678 -0.0151047
415 1 0.174594 0.253258 0.026462 8.3461 -3.34208 -0.173522 0.143823 -0.146941
416 1 0.144368 0.27668 0.0230474 6.67482 -3.32394 0.054357 0.0466937 0.254329
413 1 0.150063 0.255194 0.00163998 9.26259 -3.32278 0.0160239 -0.126021 0.259532
420 1 0.180211 0.279552 0.00802147 0.307524 -3.28053 -0.0247735 -0.0236523 -0.137441
419 1 0.210541 0.25684 0.0106913 6.44025 -3.28475 -0.143037 -0.100132 0.0142025
2021 1 0.234837 0.255698 0.0361995 0.326713 -3.31969 0.207564 0.212072 -0.188841
424 1 0.238317 0.280973 0.0152841 0.0753302 -3.36357 0.108326 0.101792 -0.010548