ITEM: TIMESTEP
18750
ITEM: NUMBER OF ATOMS
32000
ITEM: BOX BOUNDS pp pp pp
7.5907290589892664e+00 7.3409270941005573e+01
-2.9103825125770797e+00 8.3910382512571204e+01
-6.3165160793648170e+00 8.7316516079360952e+01
ITEM: ATOMS id type xs ys zs c_csym c_peratom fx fy fz
2 1 0.0421661 0.0241298 0.00316825 0.0492892 -3.34733 -0.0491658 0.070452 0.103611
78 1 0.00808345 0.0249765 0.0216334 0.106253 -3.36204 0.0131884 -0.0864939 0.00446644
81 1 0.0384065 0.048256 0.0244833 0.0888595 -3.3708 0.0108355 -0.099823 -0.0465644
159 1 0.00450159 0.0489881 0.0431558 0.357597 -3.34622 -0.237229 -0.236177 -0.141023
79 1 0.00285587 0.00147859 0.0435717 0.14323 -3.36305 -0.0514393 -0.165074 0.0469794
8 1 0.0670225 0.0232967 0.0275719 0.174892 -3.33909 -0.0565384 0.320574 0.148271
12 1 0.101214 0.024192 0.00961021 0.0971764 -3.34279 0.0728881 0.0203405 -0.157129
87 1 0.0725677 0.0480088 0.00595253 0.0332108 -3.36099 -0.0380198 0.0115863 -0.0146746
1689 1 0.0975493 0.047968 0.030729 0.11643 -3.34781 -0.104007 -0.0395064 -0.150192
1609 1 0.0955861 0.000159934 0.0315118 0.12145 -3.34097 0.0643037 -0.141954 0.116587
1610 1 0.125609 0.0241746 0.0331286 0.269401 -3.34992 0.172468 -0.0370194 0.235071
91 1 0.133984 0.0487283 0.0115421 0.524752 -3.31686 -0.390299 -0.182626 -0.0136697
16 1 0.160809 0.0246479 0.0155649 0.206507 -3.34978 -0.0342148 -0.30473 -0.0721007
1614 1 0.185382 0.0234691 0.0403077 0.131775 -3.33694 -0.230752 0.102373 0.066189
1693 1 0.156838 0.0478625 0.0360933 0.0865079 -3.34681 0.0473517 -0.0327606 0.314427
1613 1 0.153952 0.99972 0.0373437 0.141915 -3.3531 0.0743309 0.182526 -0.0237359
95 1 0.192562 0.0476936 0.0190377 0.22255 -3.30486 -0.20101 -0.0699303 -0.236513
20 1 0.219207 0.022764 0.0223082 0.0995303 -3.33496 0.0600053 0.0891881 -0.0884776
1697 1 0.214517 0.0481006 0.0436777 0.486015 -3.33066 0.366426 -0.28915 0.27539
15 1 0.187932 0.999726 0.019079 0.12401 -3.33784 -0.0819276 -0.0719574 -0.0506928
1617 1 0.212374 0.999747 0.0437255 0.149995 -3.33523 -0.0586434 -0.18834 0.0831493
1618 1 0.243806 0.0222836 0.047978 0.295769 -3.32292 -0.293034 0.374249 -0.156688
99 1 0.249504 0.0470934 0.0270518 6.78083 -3.37054 0.208192 -0.0902086 -0.0436722
18 1 0.254359 0.0222137 0.00431773 6.76528 -3.33443 -0.373116 0.0282452 0.081264
24 1 0.276653 0.0219194 0.0296835 6.94123 -3.33307 0.0315785 0.113445 -0.303843
22 1 0.295072 0.0303503 0.00268524 0.351697 -3.30587 0.0341366 0.191458 0.142931
28 1 0.319267 0.0279873 0.0265317 0.164906 -3.31572 0.0910483 -0.13916 0.0638362
32 1 0.362279 0.0314378 0.0232345 0.190514 -3.30495 0.0452822 0.0196944 0.126496
25 1 0.319853 0.00499863 0.00443971 5.58938 -3.32327 0.110865 -0.0489869 -0.00435884
27 1 0.345667 0.00219638 0.0267956 0.218301 -3.31186 -0.0743882 -0.0527989 0.0577567
31 1 0.38842 0.00493288 0.0214652 0.54076 -3.25798 -0.122423 0.0467766 0.163046
36 1 0.404141 0.0347563 0.0185209 6.56039 -3.27976 -0.0545399 0.128424 0.281334
35 1 0.430236 0.0105353 0.018229 7.48409 -3.22731 -0.0726335 -0.0979019 0.162372
40 1 0.440939 0.0376991 0.999822 6.74813 -3.30887 -0.179578 0.0564144 0.176064
39 1 0.46322 0.0108724 0.00189609 10.6923 -3.13751 -0.157198 -0.199415 -0.0578273
1638 1 0.462914 0.0320069 0.0257994 2.11616 -3.24263 0.0295902 -0.0397093 -0.00805397
1641 1 0.495716 0.0148333 0.0338688 8.34302 -3.30753 0.0300379 -0.0920653 0.116616
44 1 0.496197 0.0293882 0.00709972 9.09092 -3.29256 -0.0484883 -0.0513101 0.100112
43 1 0.532558 0.0180855 0.0171699 9.09626 -3.28346 0.121248 0.190176 0.0366185
1645 1 0.561232 0.00875741 0.0480769 9.59726 -3.16 -0.285791 0.130838 0.0936448
48 1 0.566204 0.0344279 0.0305948 6.84991 -3.28497 -0.0340241 0.0732249 -0.202154
52 1 0.575423 0.0100785 0.0136363 6.5512 -3.29221 -0.138882 -0.082581 -0.106784
1650 1 0.600985 0.0136471 0.0364403 3.12721 -3.24646 0.12256 -0.230191 0.163447
131 1 0.604156 0.0369539 0.0170943 0.32101 -3.29607 0.0302413 0.231208 -0.250489
1733 1 0.629191 0.0402018 0.042516 3.11706 -3.31034 0.134715 0.026666 0.0599177
56 1 0.63772 0.0175216 0.0230785 0.494491 -3.31696 0.0607962 -0.285228 -0.0368408
135 1 0.666125 0.0421995 0.0271238 7.05207 -3.25427 0.00721726 -0.0753754 0.0752475
54 1 0.67205 0.0185932 0.00596491 0.2151 -3.32201 0.0253896 -0.111818 0.158945
60 1 0.698253 0.0202642 0.0310807 6.88377 -3.22595 -0.257174 -0.104106 0.139138
64 1 0.733905 0.0210554 0.017249 10.65 -3.26807 0.145905 0.127214 -0.217373
139 1 0.701783 0.0431579 0.0116062 12.3525 -3.26557 0.104013 0.377121 0.0422995
68 1 0.792428 0.020921 0.0231526 12.3328 -3.2704 -0.257593 0.188329 -0.157164
143 1 0.762457 0.0442639 0.0183627 6.98238 -3.28559 -0.151466 0.0693737 0.257175
1745 1 0.789463 0.0458502 0.0421251 6.94504 -3.25185 -0.10894 -0.167474 -0.151613
145 1 0.796293 0.0452522 0.000520303 0.0968654 -3.33705 0.100823 -0.182381 0.0312319
72 1 0.852728 0.0220264 0.0267177 0.169283 -3.33599 -0.0492034 0.127842 0.259081
147 1 0.823074 0.0457013 0.0242728 0.0974495 -3.34051 0.0503814 -0.0844432 -0.204639
149 1 0.857671 0.0464306 0.00622562 0.15179 -3.34122 -0.339155 0.0650354 -0.252967
66 1 0.826607 0.021598 0.00338536 0.14555 -3.36498 -0.0198939 0.262076 -0.0146036
1666 1 0.818807 0.0217174 0.0454127 7.29534 -3.27093 0.321063 -0.0143616 0.0395191
76 1 0.912391 0.0238712 0.0327361 0.123496 -3.34424 0.234895 -0.0219924 0.0802625
70 1 0.886406 0.023505 0.00866073 0.107829 -3.31442 0.269309 -0.0114835 -0.0314372
151 1 0.882497 0.0464787 0.0294873 0.093776 -3.34193 0.143924 0.0751747 0.264188
153 1 0.917556 0.0471574 0.0112737 0.0818161 -3.36646 0.010378 0.0180961 -0.0303989
74 1 0.947884 0.0242424 0.0144008 0.114579 -3.37204 -0.015239 0.0754615 0.214437
80 1 0.97347 0.0252634 0.0402845 0.193838 -3.36976 -0.0785625 -0.110513 -0.169184
155 1 0.942521 0.0477438 0.0363319 0.0951105 -3.36028 0.130208 -0.0751466 -0.154556
157 1 0.978058 0.0476916 0.0179348 0.0718612 -3.35316 -0.0321316 -0.00551812 -0.0193244
158 1 0.00860783 0.071363 0.0204731 0.110219 -3.35132 -0.114357 0.0332758 0.115309
161 1 0.0384277 0.0946088 0.0234455 0.0706769 -3.35805 -0.0590133 0.110469 0.0206752
239 1 0.00353887 0.0948363 0.0423623 0.0863092 -3.36551 -0.00762833 0.0171529 -0.0906195
30484 1 0.0421225 0.0716113 0.0016851 0.127798 -3.35692 0.168656 -0.0858929 0.0588351
82 1 0.0682038 0.0718815 0.0265721 0.162792 -3.33753 -0.0813639 -0.152406 0.0898255
92 1 0.103283 0.0711546 0.00885953 0.133392 -3.3448 0.0295612 0.0894964 -0.307638
167 1 0.09911 0.0943275 0.0298512 0.259757 -3.34475 -0.214798 0.236788 -0.0104165
165 1 0.0733198 0.0949817 0.005024 0.0708823 -3.36821 -0.0598584 0.0743757 -0.107248
1690 1 0.128281 0.0714343 0.0326317 0.126169 -3.3337 0.0239162 0.0349447 0.242327
171 1 0.133284 0.0951778 0.0110051 0.159402 -3.36183 0.0128713 0.0405562 -0.160277
96 1 0.163846 0.0721576 0.0148203 0.207206 -3.33611 -0.0600044 0.0317002 -0.105402
1694 1 0.187325 0.0717387 0.0395703 0.22934 -3.31781 -0.0705401 0.0813081 0.135854
1773 1 0.157544 0.0961706 0.0361947 0.226304 -3.34276 0.00512825 -0.237707 -0.0356468
175 1 0.194809 0.0960151 0.0203122 6.68955 -3.34263 -0.176939 -0.00536328 -0.113027
100 1 0.223973 0.0721571 0.0237721 6.70388 -3.33287 -0.0677392 -0.0891401 0.0303791
1777 1 0.219134 0.0963674 0.0448612 5.60143 -3.32572 -0.0698073 -0.10632 -0.0777604
1698 1 0.248302 0.0714486 0.0488441 6.86581 -3.35179 0.0109712 -0.120061 -0.127539
103 1 0.29344 0.0528961 0.0254495 0.130473 -3.30842 -0.03012 0.137108 -0.0594533
104 1 0.269114 0.0785743 0.0232583 0.319221 -3.33179 -0.0231527 -0.103992 0.0843841
108 1 0.31204 0.0840689 0.0210663 0.288894 -3.34073 -0.167752 0.0181662 -0.157832
107 1 0.337108 0.0572323 0.0237421 0.849351 -3.29634 -0.119803 0.229896 -0.220701
112 1 0.355677 0.0911248 0.0165872 6.42369 -3.35312 -0.0606303 0.0397001 -0.171107
1706 1 0.33697 0.0825894 0.0435861 0.280396 -3.32253 0.165354 -0.112761 0.314537
1709 1 0.362332 0.0562042 0.0459558 0.349811 -3.30493 -0.136447 -0.0709216 0.284958
1710 1 0.381232 0.0885485 0.0395768 3.71536 -3.35615 -0.0429629 -0.0592467 -0.167322
111 1 0.380439 0.0622699 0.0208498 4.79839 -3.22079 0.0753961 -0.0718152 0.0475567
115 1 0.409299 0.0589313 0.999507 7.43742 -3.23992 -0.0245326 -0.0702841 -0.385222
1713 1 0.404361 0.057951 0.0433496 3.49401 -3.27952 0.0493932 0.0789017 0.113722
116 1 0.397797 0.0871743 0.00829884 2.8831 -3.28806 -0.233513 0.0682636 0.0475386
1714 1 0.423673 0.0844521 0.0336223 4.16218 -3.29464 -0.103656 0.0224908 -0.133264
1717 1 0.433393 0.056139 0.0229755 6.40815 -3.23559 0.196468 0.0861037 -0.00597971
119 1 0.471737 0.0563675 0.0107365 4.8233 -3.16561 0.0108951 -0.0126707 0.249127
120 1 0.440589 0.0809734 0.00452636 4.31869 -3.35892 -0.0373782 -0.0917885 -0.0394263
1718 1 0.465883 0.0787922 0.0311794 5.8123 -3.24245 0.14947 0.226098 -0.284964
1721 1 0.49859 0.0519861 0.0337581 6.83179 -3.27503 -0.170979 -0.194808 -0.0512409
124 1 0.505022 0.0795044 0.0204113 1.45016 -3.25398 -0.2479 0.0982033 0.191137
123 1 0.536144 0.054348 0.0231167 9.1538 -3.29611 -0.00338717 0.0503561 0.170833
128 1 0.539807 0.0819829 0.00527329 0.79214 -3.27501 0.308567 -0.0601044 -0.105335
1722 1 0.527242 0.0778266 0.045797 0.702048 -3.32634 -0.0473268 -0.187394 -0.0657974
1726 1 0.564188 0.0800013 0.0312145 0.374117 -3.31653 -0.00703327 0.19803 0.0671857
127 1 0.572633 0.0593358 0.0106888 6.01417 -3.25839 0.159498 -0.0374081 0.111631
132 1 0.600917 0.0831522 0.0149098 2.08317 -3.30145 -0.127394 0.0777145 0.103585
1729 1 0.59629 0.0586878 0.036984 1.48999 -3.31489 -0.0264803 0.0693943 -0.0262541
1730 1 0.625819 0.0842978 0.0403455 10.161 -3.18943 0.00979707 -0.022838 -0.174318
136 1 0.633996 0.0628164 0.0204265 6.21337 -3.2236 -0.339025 -0.329778 0.227922
1734 1 0.661003 0.0676377 0.0449283 9.43977 -3.27916 0.171934 -0.0716893 0.0832905
140 1 0.671167 0.0665423 0.00909689 11.2163 -3.24682 0.107837 -0.00891553 -0.221931
215 1 0.639977 0.0886335 0.00505659 6.11984 -3.2767 0.145317 0.0814763 -0.148295
144 1 0.730573 0.0674465 0.0155629 12.6693 -3.29795 -0.18268 -0.218907 0.182309
219 1 0.698286 0.0894945 0.0129718 11.3234 -3.29676 0.0941251 0.121538 0.00281602
1821 1 0.726688 0.0917774 0.0355813 6.53871 -3.26743 -0.0702563 0.00450735 -0.194572
148 1 0.793265 0.0684977 0.020456 0.129385 -3.32779 -0.155987 0.106325 0.0410988
223 1 0.760984 0.0910298 0.0172652 0.135227 -3.31736 0.132683 0.151963 -0.00952759
1825 1 0.787413 0.0925413 0.0405064 0.0963404 -3.34994 0.0954496 -0.118236 0.188503
1742 1 0.758271 0.0681927 0.0383641 6.7556 -3.27893 -0.0835729 0.0544162 -0.0637056
225 1 0.795992 0.0922184 0.999384 0.0518298 -3.37748 0.0750065 0.0689067 -0.177662
152 1 0.852932 0.0698175 0.0276662 0.179825 -3.33356 0.0574188 0.0328421 -0.301161
229 1 0.857219 0.0937386 0.00561003 0.07147 -3.34975 -0.155281 -0.0501969 -0.0915937
146 1 0.827488 0.0693934 0.00257972 0.0941561 -3.35434 -0.0159572 -0.0110897 -0.00992407
227 1 0.82259 0.091946 0.0232463 0.221566 -3.35119 -0.0259257 0.28502 0.0535883
1746 1 0.819177 0.0692488 0.0449835 0.0978643 -3.32559 -0.19009 0.0591437 0.0257008
156 1 0.912215 0.0708322 0.0326423 0.0678495 -3.35593 0.158459 -0.0824386 0.104499
150 1 0.886726 0.070345 0.00885894 0.0903174 -3.35571 0.0522214 0.0620912 -0.196328
233 1 0.916582 0.0937118 0.0114174 0.0837839 -3.3464 0.00970258 0.0696892 -0.0524409
231 1 0.882426 0.0941722 0.0294155 0.0613194 -3.33157 0.000386349 -0.127185 0.0773435
154 1 0.947248 0.0705643 0.0145159 0.0777761 -3.36765 0.0666651 0.046503 -0.0395347
160 1 0.973289 0.0711398 0.0385749 0.142078 -3.35491 0.0740865 0.0650861 0.140984
237 1 0.977769 0.0949324 0.0177311 0.076096 -3.36131 0.0518251 -0.0761214 -0.108922
235 1 0.943004 0.0946846 0.0354428 0.0375271 -3.36287 -0.0575729 -0.0884433 0.110147
241 1 0.0390413 0.141852 0.0226507 0.382003 -3.33015 -0.308302 0.125104 0.0622881
238 1 0.00864407 0.118644 0.0196455 0.157484 -3.37496 -0.127753 -0.0951142 0.124196
30564 1 0.0433686 0.11887 0.00127519 0.196868 -3.36215 0.0558125 -0.18864 0.058666
319 1 0.00312038 0.142246 0.0411415 0.200186 -3.36745 -0.0702733 -0.16356 0.0842946
162 1 0.0678468 0.11808 0.0266685 0.0874002 -3.34482 0.0192779 -0.112309 -0.0560418
172 1 0.126991 0.118569 0.0333582 0.0588915 -3.32847 -0.0467062 -0.00430253 -0.000833991
245 1 0.0966791 0.141907 0.0303241 0.0871459 -3.33008 -0.0829648 0.138102 -0.121794
30643 1 0.0730425 0.14279 0.00510968 0.143268 -3.32289 -0.164363 -0.0873535 0.0642017
166 1 0.102133 0.118628 0.00836566 0.0928019 -3.34415 0.0665461 -0.060036 -0.0646013
249 1 0.131262 0.141734 0.0132077 1.56247 -3.31179 -0.150147 0.307205 -0.225031
176 1 0.162138 0.119434 0.0154163 1.22509 -3.3377 0.0860421 -0.0877571 -0.0197187
255 1 0.186086 0.146713 0.0178109 6.52606 -3.32287 -0.058205 0.0641767 -0.0889621
251 1 0.155347 0.14382 0.0371945 0.248047 -3.31886 -0.0357052 -0.0630925 0.0146707
1774 1 0.185947 0.120136 0.0408048 0.734243 -3.32819 0.157145 -0.0842204 -0.113869
179 1 0.242487 0.102336 0.0211511 0.869556 -3.29448 -0.0275691 -0.0632347 -0.0374466
180 1 0.215044 0.124826 0.0199829 5.71673 -3.29109 -0.129664 -0.0701133 -0.12239
1778 1 0.241003 0.124055 0.0448523 5.8326 -3.29865 0.0554767 -0.183173 -0.0434391
1857 1 0.211608 0.145838 0.0426958 6.93387 -3.31954 -0.150303 0.160689 0.140663
184 1 0.255321 0.134103 0.017614 0.166861 -3.31679 0.136874 -0.153601 -0.00847604
183 1 0.284298 0.109839 0.0186216 0.134757 -3.3225 -0.0133713 -0.09381 0.166593
188 1 0.297821 0.141823 0.015222 7.72309 -3.332 0.0263396 -0.079259 -0.188156
1782 1 0.282426 0.132348 0.041283 0.171205 -3.33477 -0.0472216 -0.140667 0.103344
1785 1 0.31079 0.107997 0.0422971 0.238399 -3.32373 -0.20311 -0.0642465 0.242928
1781 1 0.268594 0.100731 0.0457728 1.44491 -3.33524 0.0532117 0.0838659 0.039251
1789 1 0.352196 0.113825 0.038406 6.77356 -3.30477 0.0802251 0.144152 0.0806993
187 1 0.32628 0.116671 0.0153914 6.75227 -3.31298 -0.0456384 -0.23506 -0.0834199
192 1 0.355223 0.139777 0.0178101 6.59004 -3.26693 0.165083 -0.0689157 0.0171016
1786 1 0.325005 0.139775 0.038713 7.60515 -3.32955 0.0759111 -0.0350988 0.015589
195 1 0.426622 0.109886 0.0127301 0.418969 -3.32211 0.130584 0.0879895 0.0733865
191 1 0.384888 0.115793 0.0172706 7.33147 -3.33864 -0.194511 0.180941 0.101941
196 1 0.413679 0.1401 0.022634 7.68723 -3.34674 -0.0607237 -0.101948 0.00468271
1790 1 0.380012 0.137872 0.0420546 5.24448 -3.28102 -0.171189 -0.143809 -0.261191
199 1 0.469718 0.103465 0.0129494 6.43885 -3.31282 0.18065 0.190972 -0.194255
200 1 0.454903 0.133698 0.0198885 0.455752 -3.30958 -0.0132041 -0.249045 0.116513
1801 1 0.494909 0.100963 0.041056 7.97694 -3.34048 0.0128033 -0.123853 -0.105766
1797 1 0.451518 0.107653 0.0385115 0.637052 -3.27942 0.0161509 0.259095 0.344261
1805 1 0.533634 0.103633 0.0257037 0.354632 -3.28105 -0.241039 -0.129697 0.0849305
208 1 0.538412 0.127226 0.00429049 6.64495 -3.3345 -0.195868 -0.151773 -0.0125734
1802 1 0.499655 0.126622 0.0205377 7.42516 -3.31077 0.0776043 -0.290135 -0.113925
203 1 0.50781 0.103869 0.000706092 0.715831 -3.30751 0.0619429 0.0204908 -0.0398338
1806 1 0.561417 0.126518 0.0313377 6.26267 -3.29984 0.0997803 0.262858 -0.0966152
207 1 0.5696 0.105679 0.0091708 6.08105 -3.34764 0.0195124 -0.157026 -0.0616155
212 1 0.580559 0.135813 0.999421 7.87387 -3.30173 -0.0604411 -0.217241 -0.0767879
211 1 0.609723 0.111626 0.00136115 6.06496 -3.31611 0.0508163 0.0634788 0.290181
1809 1 0.593883 0.105823 0.0350526 5.89328 -3.29886 -0.187777 -0.197051 0.156155
1810 1 0.603019 0.134773 0.0245888 6.24281 -3.32732 0.212733 -0.0352506 -0.0118904
216 1 0.639006 0.135971 0.00636073 0.298614 -3.33271 -0.0343998 -0.0734213 -0.204994
220 1 0.668473 0.112641 0.00868388 6.6083 -3.31432 0.0972682 -0.0455007 -0.0826413
1813 1 0.634655 0.111029 0.0267067 6.60982 -3.29376 0.0139549 0.277097 0.107462
1897 1 0.664591 0.137168 0.0299661 6.40857 -3.24949 -0.0634115 -0.0290352 -0.028632
224 1 0.730362 0.114017 0.0134304 0.140013 -3.32472 -0.0738232 0.091738 0.158781
1818 1 0.69516 0.114906 0.0316154 6.51792 -3.2623 0.0230621 -0.246193 -0.0159375
1901 1 0.725119 0.138591 0.0333533 0.292281 -3.32788 0.397796 0.0511352 0.0618031
299 1 0.698828 0.137152 0.0105366 0.116897 -3.31893 0.054989 0.0804119 -0.104744
228 1 0.791342 0.115468 0.020225 0.09606 -3.32922 0.112895 0.0762309 -0.231676
1822 1 0.757152 0.115749 0.0366847 0.169154 -3.34075 -0.307374 0.0136165 0.262904
303 1 0.760681 0.138729 0.0160161 0.0563475 -3.34375 -0.0653468 0.112372 0.0222484
1905 1 0.786315 0.139995 0.0397005 0.176673 -3.34559 0.11593 0.0478989 0.244656
232 1 0.852415 0.116694 0.0265325 0.118363 -3.33809 -0.224587 0.0832135 -0.0278735
307 1 0.82137 0.140754 0.0228209 0.117758 -3.34153 -0.122666 -0.0898387 0.0812667
309 1 0.855518 0.140937 0.00545278 0.12349 -3.35886 0.0845046 -0.124285 -0.21736
226 1 0.82604 0.116773 0.00299643 0.212816 -3.37101 -0.0134733 -0.164171 -0.25827
236 1 0.912657 0.117647 0.0325986 0.0953163 -3.3474 -0.101197 0.069796 -0.0461228
230 1 0.886354 0.117734 0.00841948 0.0860941 -3.35546 0.0132922 -0.0233134 -0.0895399
311 1 0.880779 0.140729 0.0297186 0.13464 -3.34921 0.194294 0.118539 -0.138611
313 1 0.916049 0.141029 0.0108973 0.0561218 -3.35408 0.0273498 -0.08462 0.0390301
234 1 0.945992 0.117761 0.0143032 0.131497 -3.341 0.198679 0.000311075 -0.0569894
240 1 0.972733 0.118255 0.0380514 0.0813182 -3.35317 0.0719358 0.0601303 0.0896233
315 1 0.941728 0.1414 0.0349501 0.0452215 -3.35818 0.0499378 -0.00247523 0.101937
317 1 0.977294 0.141297 0.0167003 0.0711546 -3.35929 0.035459 0.0871218 0.107628
321 1 0.0357375 0.188526 0.0241907 0.106865 -3.35674 -0.0129091 0.160984 -0.0365288
318 1 0.00710787 0.165503 0.0203277 0.101528 -3.34668 -0.139004 -0.145514 -0.127213
399 1 0.000134741 0.187935 0.0421399 0.0958854 -3.34507 -0.0105496 0.0727515 0.0681615
30644 1 0.0415126 0.166434 0.00203704 0.120899 -3.34694 -0.0771741 -0.102961 -0.0322476
244 1 0.0315734 0.165204 0.0451192 0.0811969 -3.35528 0.045948 -0.0134095 0.102021
242 1 0.067053 0.166463 0.0270801 0.146708 -3.35703 -0.0569199 -0.119594 -0.115075
246 1 0.124397 0.166745 0.033736 0.20187 -3.33978 0.0474463 0.0809667 0.109041
325 1 0.0945742 0.19076 0.0311063 0.175268 -3.31764 0.118185 -0.103312 -0.110126
30723 1 0.0710513 0.190377 0.00551095 0.47969 -3.3207 -0.252357 -0.00327818 0.212253
30648 1 0.101844 0.167143 0.00915788 0.509891 -3.33823 -0.125585 -0.0348239 0.00469528
30727 1 0.127935 0.192898 0.0125361 7.50303 -3.35722 -0.0947788 -0.0911035 -0.134714
256 1 0.182328 0.16926 0.0403161 7.17892 -3.33469 -0.0403954 -0.0316698 0.0929569
250 1 0.156365 0.169275 0.0150502 6.55543 -3.34166 -0.0586758 0.0485956 0.00405506
329 1 0.153841 0.192458 0.0372735 7.30432 -3.34769 -0.0437404 -0.0605896 0.0102059
259 1 0.226606 0.157089 0.0161641 0.16887 -3.33361 -0.057047 0.118021 -0.152194
260 1 0.196246 0.179887 0.0141699 0.231386 -3.32037 0.134606 -0.0204765 -0.0858423
264 1 0.237976 0.189346 0.0117951 7.78059 -3.3642 0.00223378 -0.145187 0.00547152
1858 1 0.221825 0.179301 0.0391988 0.302329 -3.3152 0.0935368 -0.0283409 -0.181746
1861 1 0.252044 0.155674 0.0404183 0.0924457 -3.31451 0.091631 0.011439 -0.113709
263 1 0.268836 0.16584 0.0131773 8.02019 -3.34376 -0.133115 -0.0937216 0.151792
1862 1 0.263322 0.187101 0.0361349 7.03952 -3.35396 0.237292 0.0905178 0.00130899
268 1 0.299917 0.189409 0.0192062 0.270766 -3.32125 -0.153204 -0.0763236 -0.141188
1865 1 0.294537 0.164144 0.0372692 6.92384 -3.33783 -0.0498941 -0.0291167 0.140463
267 1 0.330778 0.166253 0.0216659 2.14158 -3.32278 0.10069 -0.0384662 -0.0994188
272 1 0.359669 0.189993 0.0276596 5.92244 -3.28419 0.051628 -0.107993 -0.187166
1869 1 0.359958 0.16723 0.0505216 10.4052 -3.31708 -0.113074 -0.36605 -0.232757
1866 1 0.326376 0.188071 0.0440985 0.745894 -3.28281 -0.268188 -0.00391687 0.276024
271 1 0.382603 0.163439 0.022968 5.74802 -3.27386 -0.138678 -0.164267 0.0926609
273 1 0.415905 0.165376 0.00370738 6.82404 -3.35318 0.0994451 -0.167738 -0.0937633
276 1 0.410897 0.18596 0.0293889 5.21438 -3.26785 0.0297171 0.324724 -0.240252
270 1 0.38722 0.190159 0.00538297 0.301901 -3.27974 0.0375797 -0.134739 -0.102799
275 1 0.441376 0.163492 0.0298395 7.16822 -3.3306 0.0494054 -0.260903 -0.152721
280 1 0.444826 0.18775 0.00923144 6.93286 -3.31721 -0.102252 0.0225834 0.117887
279 1 0.45893 0.157191 0.000640415 0.427863 -3.26656 -0.198087 0.162212 -0.0520386
284 1 0.48465 0.180623 0.00761556 3.92976 -3.28484 0.176994 -0.101177 -0.0365496
1881 1 0.484684 0.155126 0.0261424 0.581132 -3.29858 -0.106329 0.130228 0.196215
1878 1 0.469247 0.185186 0.0355555 7.05876 -3.32342 0.0275172 0.366861 -0.0843368
1882 1 0.511066 0.178382 0.0328924 5.00736 -3.29496 -0.208815 -0.0817967 0.0187048
1885 1 0.529543 0.149812 0.0250044 9.00859 -3.36311 0.0052492 -0.10795 0.0430643
1886 1 0.544761 0.178732 0.0161779 4.64904 -3.27662 -0.0793631 0.282445 -0.0315575
283 1 0.503054 0.150676 0.998881 9.82899 -3.3633 0.166027 0.133822 -0.0879068
291 1 0.610635 0.158803 0.00275163 0.364431 -3.33619 -0.259371 -0.104454 0.151637
292 1 0.57914 0.180391 0.998635 0.23858 -3.30998 0.121549 -0.0567099 0.144279
1889 1 0.57446 0.157303 0.0207802 7.10908 -3.2989 -0.0661796 -0.21637 0.163033
1890 1 0.605401 0.18113 0.0260844 7.65096 -3.28996 -0.0236311 0.126043 0.219867
1892 1 0.568595 0.178795 0.0412837 7.54868 -3.23609 0.25086 0.112027 0.237615
295 1 0.668673 0.160481 0.00799129 0.274293 -3.30268 0.142114 -0.191242 0.0882181
296 1 0.638504 0.181714 0.00664291 0.377214 -3.26801 0.0241885 0.285375 -0.247606
1893 1 0.634552 0.158625 0.0298128 6.87064 -3.27346 -0.120912 0.0893046 -0.0240845
1894 1 0.663656 0.18247 0.030103 11.2813 -3.29878 0.0702724 0.30234 0.282697
300 1 0.695227 0.161125 0.0315108 7.19571 -3.31171 -0.0463409 0.381096 -0.113384
304 1 0.730884 0.162672 0.0132466 0.235369 -3.36291 -0.210378 -0.245043 -0.0635074
379 1 0.726778 0.186591 0.0335466 0.0977708 -3.32924 -0.0777523 0.0549503 -0.0681004
377 1 0.700055 0.184709 0.0101617 0.0946872 -3.35843 -0.0898912 -0.0476889 0.0499489
308 1 0.790739 0.163733 0.0189848 0.0807881 -3.35553 0.0514941 -0.0147306 0.0514788
1902 1 0.757174 0.163351 0.0366527 0.15588 -3.35262 -0.110494 0.0176322 0.0219827
383 1 0.759911 0.187179 0.0148361 0.234566 -3.34223 0.240994 -0.117788 0.220946
1985 1 0.786592 0.187561 0.0398316 0.0614489 -3.36221 -0.180556 -0.0362255 -0.0308513
1906 1 0.815827 0.164391 0.0445353 0.244618 -3.33887 -0.0413792 -0.118692 -0.227958
312 1 0.850125 0.164303 0.0260553 0.0828799 -3.35409 0.164381 0.100844 -0.121759
387 1 0.820732 0.187261 0.0217472 0.0953714 -3.35346 -0.101439 0.0799687 0.036513
389 1 0.855586 0.187912 0.00416371 0.129945 -3.35948 -0.156385 -0.138437 -0.0344858
306 1 0.825299 0.16402 0.00107949 0.0629589 -3.34345 0.0434906 -0.00677286 0.0326216
310 1 0.885588 0.163989 0.00780148 0.0319136 -3.35383 -0.0554777 0.00293574 -0.0231973
316 1 0.911114 0.164704 0.031594 0.152593 -3.36451 -0.0537251 -0.0792602 0.270514
391 1 0.880707 0.188245 0.0283405 0.123328 -3.35451 -0.168138 -0.204629 0.175368
393 1 0.915164 0.187597 0.0109013 0.100563 -3.33199 -0.0820619 -0.0192083 -0.0388683
314 1 0.94596 0.164647 0.0139584 0.0731813 -3.35301 0.0620708 -0.00434667 -0.00441022
320 1 0.971415 0.164984 0.0381827 0.0761652 -3.35055 -0.00535841 -0.104455 0.134952
395 1 0.93969 0.188522 0.0365622 0.305074 -3.33897 0.101515 -0.133165 -0.300722
397 1 0.974523 0.187925 0.0176817 0.0555998 -3.36823 -0.0200245 0.109141 -0.105179
401 1 0.0334176 0.235286 0.0237254 7.24386 -3.28012 -0.0363234 0.0190745 0.408796
398 1 0.00263841 0.21144 0.0212165 0.209913 -3.3476 0.129153 -0.0199503 -0.078015
30724 1 0.0375724 0.211598 0.00344571 6.05056 -3.30335 0.0118315 -0.0307738 -0.159888
322 1 0.0640582 0.21322 0.0274907 3.98138 -3.27973 -0.170133 -0.148158 0.174694
326 1 0.124721 0.215157 0.0347567 9.25828 -3.31931 -0.265614 0.11476 -0.0256589
405 1 0.0757344 0.244073 0.0241209 14.134 -3.32369 -0.00471216 0.1365 -0.128558
409 1 0.108684 0.247588 0.00633663 5.06333 -3.25659 -0.160314 -0.0711021 -0.190948
30728 1 0.0974346 0.216376 0.0110059 11.292 -3.33997 0.141491 0.0332736 -0.00352619
335 1 0.167904 0.203323 0.0100853 6.7405 -3.2613 -0.0858131 -0.115861 0.154829
336 1 0.165114 0.226662 0.0309471 6.28632 -3.27741 0.184176 -0.191157 0.0487983
330 1 0.138483 0.225859 0.00818511 7.2947 -3.23982 0.113518 -0.262262 -0.192538
411 1 0.134491 0.247818 0.0299542 2.63668 -3.23477 -0.216939 0.0292829 0.127406
1937 1 0.193274 0.203345 0.0363102 0.306832 -3.29168 -0.110282 -0.0935461 -0.122504
339 1 0.207589 0.212688 0.0094942 9.40753 -3.32297 0.0657812 0.039799 -0.0185928
340 1 0.204832 0.235524 0.0311717 9.49711 -3.30416 0.0446442 -0.10946 0.0421592
344 1 0.238819 0.235458 0.013828 0.169388 -3.30767 -0.0460635 0.216795 0.0583046
1941 1 0.234452 0.21109 0.0341018 7.83877 -3.35348 0.0480631 0.0830202 0.0855112
343 1 0.269551 0.212711 0.0167092 0.129236 -3.33592 -0.100603 -0.0237862 0.123339
348 1 0.298568 0.236283 0.0213639 0.0568073 -3.33966 -0.0196443 0.0279709 -0.0356721
1942 1 0.265032 0.235044 0.039483 0.16954 -3.34609 -0.0654717 -0.0173612 -0.0969492
1945 1 0.29506 0.210774 0.0424126 0.383693 -3.33905 -0.0319225 0.196533 -0.125865
347 1 0.328352 0.2124 0.0238928 0.172757 -3.32095 0.0211253 0.159758 -0.0209107
349 1 0.361408 0.214404 0.00602172 0.355356 -3.33392 -0.0541253 0.173676 -0.159532
352 1 0.35756 0.236376 0.0285454 0.0930069 -3.34669 0.0336235 0.0656009 0.029236
1946 1 0.323614 0.235432 0.0456717 0.199392 -3.34573 0.0535139 -0.0355882 0.266577
346 1 0.332103 0.238559 0.00338049 0.13911 -3.34741 0.050915 -0.246097 -0.0694283
355 1 0.416653 0.212483 0.0101623 0.184113 -3.26605 -0.0236888 -0.0510827 -0.041072
351 1 0.387851 0.213225 0.0314049 1.22425 -3.34617 0.07232 0.119052 0.151613
356 1 0.391266 0.237993 0.0108679 0.492695 -3.33886 -0.112294 -0.0168486 -0.119384
1954 1 0.417557 0.236841 0.0373275 5.76316 -3.33555 -0.0713733 0.234531 -0.248654
360 1 0.444609 0.235723 0.0142798 0.553281 -3.24985 0.142369 0.14046 0.271774
359 1 0.472609 0.211743 0.0153997 7.12227 -3.31939 0.0563054 -0.0710221 0.0668903
1957 1 0.439895 0.209883 0.0337211 5.87876 -3.28625 -0.0651985 -0.195391 0.132781
1958 1 0.466307 0.234183 0.0390905 5.428 -3.28204 0.0191622 0.143558 -0.21704
1961 1 0.496639 0.209557 0.0404985 7.13012 -3.3572 -0.0328208 0.120139 0.117131
364 1 0.501209 0.234858 0.0210491 7.50461 -3.33713 0.00501317 -0.0311384 0.00562835
363 1 0.513738 0.20336 0.0132627 7.73035 -3.32048 0.0207943 -0.170282 -0.0575084
368 1 0.542634 0.225353 0.018212 7.06452 -3.32289 0.077297 0.180444 -0.0552939
1965 1 0.538437 0.200911 0.0380267 7.27341 -3.27778 -0.0383669 0.112945 0.0893627
371 1 0.608066 0.204168 0.00338586 0.321427 -3.30116 0.141375 -0.0170451 -0.319035
372 1 0.577903 0.22692 0.999732 0.168653 -3.32517 0.155172 0.0437816 -0.077105
1969 1 0.573849 0.202197 0.0204397 6.632 -3.27082 0.0227875 -0.00595325 0.00110335
1970 1 0.601921 0.2266 0.0242122 7.56206 -3.27454 0.088473 0.135019 0.158258
447 1 0.571892 0.24825 0.0230326 7.25975 -3.26878 0.00894958 -0.178093 -0.0256152
375 1 0.668798 0.206693 0.00763466 0.21944 -3.34106 -0.0425963 -0.0391831 0.111097
376 1 0.637792 0.229116 0.00569359 5.30449 -3.28061 0.0384979 -0.232791 -0.0621797
1973 1 0.633609 0.206567 0.0270655 9.08514 -3.26309 0.0104368 -0.228599 0.145499
455 1 0.666928 0.232125 0.0261952 1.85533 -3.24774 -0.105207 0.0291504 -0.0263447
2053 1 0.633631 0.234896 0.0430818 7.82362 -3.25723 -0.214734 0.121486 -0.107578
380 1 0.695425 0.208788 0.030093 0.200738 -3.31578 0.0630484 0.0190993 0.0272841
378 1 0.730327 0.209736 0.0122084 0.0943168 -3.30808 -0.0443557 -0.206387 0.0352126
459 1 0.725089 0.233868 0.0317007 0.22577 -3.35024 0.024543 0.223723 0.130455
457 1 0.699705 0.231209 0.00844435 5.0792 -3.28241 -0.0472427 0.181494 -0.0813294
384 1 0.756668 0.210993 0.0363724 0.129122 -3.37108 -0.119645 -0.0345333 0.126564
388 1 0.789651 0.210902 0.0176553 0.150862 -3.36805 0.157166 -0.0101358 0.07832
463 1 0.785678 0.23517 0.0390514 0.162065 -3.33233 -0.15395 -0.094408 0.0690026
461 1 0.75977 0.233769 0.0148736 0.445838 -3.32036 -0.0815024 0.212184 -0.0450198
392 1 0.849416 0.21095 0.025616 0.113367 -3.35034 0.0123724 0.129963 -0.169761
467 1 0.819106 0.235288 0.0219452 0.124102 -3.3528 -0.0411487 -0.124929 -0.262368
1986 1 0.815143 0.210828 0.0427695 0.117503 -3.33872 0.000352351 0.170533 -0.0176359
469 1 0.852469 0.235105 0.0038124 0.0723744 -3.36006 0.0848253 0.0032696 0.0318346
386 1 0.824699 0.211368 0.000463536 0.068212 -3.34307 -0.177702 -0.0226078 0.17472
390 1 0.883727 0.211352 0.00724903 0.0471489 -3.33094 -0.0962041 0.0167192 -0.0634971
396 1 0.908465 0.211804 0.0317008 0.146406 -3.31337 0.0897128 -0.0819511 0.26846
471 1 0.878187 0.235146 0.0282824 0.0373167 -3.34883 0.0148096 -0.0227271 0.0444083
473 1 0.912858 0.234054 0.010913 0.224972 -3.33441 0.0419636 0.333772 -0.116774
394 1 0.942599 0.211157 0.0150994 0.240915 -3.3413 0.373918 0.0635233 -0.244657
400 1 0.968824 0.212014 0.039504 0.0887932 -3.35056 0.0480955 -0.0666348 -0.0676133
475 1 0.938078 0.235514 0.0357446 0.134056 -3.36076 0.161028 0.0697105 0.0212855
479 1 0.999618 0.23523 0.0421686 0.0788627 -3.32163 -0.172355 -0.00370792 -0.152492
477 1 0.972145 0.234726 0.0181016 0.247813 -3.36214 0.187311 0.0236486 -0.15172
402 1 0.0453915 0.268662 0.0195625 12.0853 -3.32645 -0.28322 -0.0780978 0.162782
481 1 0.0148042 0.292979 0.0154448 12.3138 -3.32576 -0.128609 -0.0346977 0.070989
478 1 0.004029 0.258886 0.0213002 7.22874 -3.29653 0.011651 -0.0802687 -0.0369799
412 1 0.102812 0.26974 0.0269502 4.80756 -3.26497 0.00264712 -0.0285597 -0.119651
406 1 0.0781209 0.268999 0.00244208 7.96573 -3.28376 -0.0451168 0.0413504 -0.0244398
487 1 0.0720046 0.292971 0.0232833 5.07718 -3.29881 -0.0691211 0.0593735 -0.0851796
415 1 0.174541 0.258148 0.0272337 9.87881 -3.2759 0.112407 -0.18733 0.266014
416 1 0.144657 0.279847 0.0239919 7.18243 -3.32594 -0.262626 0.169323 0.288978
413 1 0.149913 0.256271 0.00400619 8.72384 -3.28542 0.146938 0.145135 -0.299585
420 1 0.179273 0.282438 0.0077832 0.25146 -3.28723 -0.145943 -0.0346549 -0.0377338
419 1 0.208723 0.259407 0.011809 7.06411 -3.29715 0.150025 -0.0861614 -0.380813
2021 1 0.235301 0.259098 0.036346 0.221202 -3.34303 0.0304727 -0.039135 -0.0419164