ITEM: TIMESTEP
8250
ITEM: NUMBER OF ATOMS
32000
ITEM: BOX BOUNDS pp pp pp
3.3378386604589818e+00 7.7662161339535871e+01
-1.2837687075959110e+00 8.2283768707590198e+01
-1.2855305734047420e+00 8.2285530573400621e+01
ITEM: ATOMS id type xs ys zs c_csym c_peratom fx fy fz
8 1 0.04943 0.0250406 0.0252083 0.0572186 -3.32336 0.0764422 -0.0491755 -0.0713947
2 1 0.0249306 0.024942 -2.83272e-06 0.0146832 -3.33488 0.0560148 -0.0478129 -0.00223069
4 1 -8.0459e-05 0.0246283 0.0249632 0.025853 -3.33865 0.0439977 0.0441728 0.00604527
3 1 0.0252735 -0.000421125 0.0248563 0.0572495 -3.33726 -0.0213908 0.0791615 0.0656502
1602 1 0.0247731 0.0248334 0.0499518 0.0187228 -3.33018 -0.0505785 -0.0309638 0.0602059
5 1 0.0499881 -0.000243595 -0.000202197 0.0443723 -3.33682 0.0274954 0.00989199 0.0530243
12 1 0.100143 0.0249353 0.0249474 0.0176941 -3.33939 -0.0188495 -0.0123569 0.043389
7 1 0.0747222 0.000132143 0.0249673 0.0280341 -3.33916 0.0523863 -0.0155623 0.00292098
9 1 0.100216 0.000157907 0.000405714 0.029378 -3.3371 0.00235838 -0.0238928 -0.0471015
1689 1 0.0999947 0.0499094 0.0501399 0.0130931 -3.34529 0.0503082 -0.0375608 0.018562
16 1 0.150175 0.0248761 0.0250643 0.00883145 -3.33065 -0.0448112 -0.0142652 -0.000179485
1610 1 0.125098 0.0247588 0.0503229 0.0165033 -3.33664 -0.0768995 0.0506269 -0.0708484
1613 1 0.150177 0.000163657 0.0501938 0.0141293 -3.33885 0.00534969 -0.0918164 -0.00237228
20 1 0.200234 0.0246093 0.0252986 0.0237377 -3.33585 -0.0237154 0.0909295 -0.00213948
15 1 0.175198 7.19683e-05 0.0250606 0.0144422 -3.34154 -0.064334 -0.0951231 0.004408
1617 1 0.199917 -0.000437563 0.0502877 0.0412561 -3.33447 -0.000962195 0.102281 -0.0437968
17 1 0.200349 -0.000288613 0.000290428 0.0143424 -3.33534 0.00424821 0.0755977 -0.0636275
24 1 0.250665 0.0246007 0.0251974 0.0569518 -3.33041 -0.149023 0.0705243 -0.0540555
1622 1 0.274995 0.0246242 0.0500155 0.0214526 -3.33645 0.125398 0.0547169 0.0272046
19 1 0.225295 -0.000138581 0.0250919 0.0118132 -3.3319 0.0391007 0.0192918 0.00444811
23 1 0.275347 -0.000218096 0.0249343 0.0217015 -3.32731 -0.0308703 0.0120865 -0.0141563
1618 1 0.22526 0.0244388 0.0499996 0.0278203 -3.34032 -0.0610701 0.0972332 -0.0163273
28 1 0.299913 0.0249885 0.0245912 0.0359788 -3.33704 0.0136894 -0.0604861 0.154872
26 1 0.324969 0.0249107 8.79213e-05 0.0177538 -3.34102 0.0336465 0.0307977 -0.062552
32 1 0.349991 0.0252233 0.0250318 0.0172943 -3.33426 -0.0338165 -0.0499794 -0.0222117
31 1 0.37494 7.53948e-05 0.0251046 0.00729266 -3.33965 0.0243176 0.014245 -0.0141925
30 1 0.374843 0.0246403 -0.000142841 0.0499695 -3.33175 0.00135377 0.12215 0.0674062
36 1 0.399907 0.0252255 0.0252541 0.0143753 -3.33932 0.0247121 -0.0392487 -0.0883508
115 1 0.424887 0.0501775 0.0252278 0.0205298 -3.33475 -0.0181289 -0.106509 -0.0495866
35 1 0.425177 0.000352442 0.0249194 0.0216573 -3.32964 -0.0835342 -0.033932 0.0824946
33 1 0.400216 9.81228e-05 0.000242644 0.0175196 -3.33919 -0.0286013 0.0256375 -0.0337877
34 1 0.42526 0.0252681 -3.88052e-05 0.0233723 -3.3388 -0.0902852 -0.0393889 0.0303043
40 1 0.450164 0.0249063 0.025035 0.0115523 -3.33717 -0.0269144 0.0897496 0.0202024
119 1 0.474909 0.0499677 0.0250195 0.0084971 -3.33758 0.0160009 0.0482378 0.0127884
44 1 0.499803 0.0251027 0.0250398 0.0123495 -3.33026 0.0213667 -0.0249535 0.00946384
41 1 0.499802 -0.000174711 0.000124638 0.0315737 -3.32924 -0.00158399 0.0611797 -0.0497902
48 1 0.549876 0.0247914 0.0248747 0.012295 -3.33124 0.102994 0.0266789 0.0179446
43 1 0.524811 0.000170866 0.0250246 0.0119045 -3.33054 -0.0232678 -0.0472347 0.031057
42 1 0.52493 0.0247089 -4.9905e-05 0.0201704 -3.33962 -0.0162839 0.0661151 -0.0119042
125 1 0.549896 0.0499845 0.000112356 0.0170722 -3.34384 -0.0317551 -0.0232112 -0.0790601
52 1 0.600032 0.0249482 0.0252556 0.0422724 -3.33187 0.0141778 -0.0280083 -0.119474
129 1 0.600072 0.0496172 -0.000108006 0.0196506 -3.34181 0.0361676 0.104797 0.0159024
127 1 0.574908 0.0494867 0.024502 0.0731179 -3.33375 0.000124736 0.113214 0.12781
46 1 0.575179 0.0244369 -0.000535129 0.0775168 -3.33913 -0.0279794 0.0937873 0.147979
56 1 0.650496 0.0248006 0.0247464 0.0332578 -3.33377 -0.136483 0.0601698 0.0473798
50 1 0.625112 0.0249844 8.7645e-05 0.0150895 -3.33489 -0.0104202 -0.00185402 -0.0323742
135 1 0.674851 0.0501644 0.0249073 0.0192 -3.32883 0.0462771 -0.0327886 -0.0500936
60 1 0.700153 0.0252787 0.0245579 0.0214344 -3.33513 -0.0122634 -0.0123257 0.0856899
1737 1 0.699745 0.0500827 0.0497546 0.0192247 -3.34361 0.100571 -0.0249573 -0.00257573
137 1 0.700108 0.0501762 -0.000101774 0.00862002 -3.33136 -0.0702795 -0.039055 -0.00849433
139 1 0.725333 0.0501869 0.0248085 0.0227123 -3.33678 -0.0886476 -0.0167357 0.0539296
64 1 0.750027 0.0251727 0.0247999 0.0107187 -3.33699 0.0103857 -0.0727823 0.0298212
1662 1 0.774937 0.0249071 0.0501767 0.0224428 -3.33102 0.0208183 -0.0152316 -0.0966965
59 1 0.724952 3.81402e-05 0.0247908 0.00735205 -3.33196 0.0626611 -0.0206271 0.0100082
1741 1 0.750206 0.0499923 0.0499638 0.0153806 -3.3354 -0.0232321 0.0316015 0.0382627
62 1 0.775067 0.0250205 0.00011659 0.0123204 -3.33309 -0.0856548 -0.0164192 -0.0115211
68 1 0.799914 0.0252596 0.0250586 0.0267726 -3.33182 -0.0656949 -0.092726 0.0711088
67 1 0.824487 0.000277471 0.0251015 0.0580008 -3.33336 0.120665 -0.0362315 0.0179035
1666 1 0.825343 0.0249257 0.0500005 0.0336305 -3.33659 -0.126911 0.0307924 -0.00569658
1745 1 0.799651 0.0502008 0.0499566 0.0286405 -3.33307 0.134207 -0.101011 0.00635263
65 1 0.799953 -0.000239247 0.000273029 0.0228414 -3.3305 0.0368636 0.0260852 -0.109699
72 1 0.850246 0.0250726 0.0249367 0.0225841 -3.33222 -0.0249401 -0.049953 0.0608913
151 1 0.875066 0.0499357 0.025093 0.00832455 -3.3268 -0.00323668 0.0495296 0.0593108
70 1 0.875119 0.0250472 -1.3579e-06 0.0160613 -3.32648 -0.0360066 -0.0271461 -0.0526967
1670 1 0.875086 0.0249849 0.050185 0.0165491 -3.33546 -0.0457774 0.0186887 -0.0313598
1749 1 0.849593 0.0498682 0.0499486 0.0239598 -3.33317 0.111906 0.0242619 0.0460561
76 1 0.899712 0.0252079 0.0249236 0.0219929 -3.33021 0.0584456 -0.0819989 0.0582753
1674 1 0.924795 0.0248076 0.0499611 0.0129418 -3.32874 -0.0483801 0.0420204 0.101802
74 1 0.925041 0.0250593 0.000133306 0.00685992 -3.34349 -0.00477078 -0.0230521 0.00395262
80 1 0.949711 0.0249493 0.0255072 0.0406165 -3.3252 0.0371553 0.0620741 -0.102716
1678 1 0.975479 0.0248726 0.0501089 0.0580287 -3.33224 -0.103801 0.0229809 0.0293036
78 1 0.974454 0.024892 0.000158939 0.0290983 -3.33373 0.0884638 0.0358187 -0.0259362
159 1 0.975067 0.0497149 0.0251281 0.012227 -3.34283 -0.0673966 0.0310516 -0.0391457
77 1 0.950062 -8.61801e-05 0.000158162 0.0163586 -3.32867 -0.0991152 -0.00522414 -0.0442298
83 1 0.0249299 0.0499045 0.024845 0.0118926 -3.33849 -0.0378597 0.00036445 0.0541708
88 1 0.0496664 0.0749339 0.0252405 0.0317069 -3.34196 0.101016 -0.107956 -0.0875885
1682 1 0.0249796 0.0748527 0.0499906 0.0117978 -3.3396 -0.0180456 -0.0699271 0.0515983
1685 1 0.0500146 0.0492828 0.0503429 0.0750758 -3.32672 -0.0531496 0.179784 -0.0948973
1681 1 3.69431e-05 0.0500183 0.0500449 0.0132408 -3.33451 0.00414205 -0.0224644 0.0446735
82 1 0.024911 0.074904 -5.59585e-05 0.0152221 -3.31793 0.00799092 -0.0433526 0.0381209
87 1 0.0750481 0.0495792 0.0249936 0.027209 -3.34488 -0.11377 0.0884011 -0.0095347
92 1 0.100062 0.0744106 0.0251849 0.046098 -3.34166 -0.0233053 0.199447 0.00227188
86 1 0.0752003 0.0745567 3.95921e-06 0.031787 -3.33152 -0.0971903 0.0621504 0.0627742
1686 1 0.0745651 0.0744407 0.0500494 0.0432697 -3.34265 0.104918 0.111177 -0.00687541
1693 1 0.149968 0.0495554 0.0498813 0.0354578 -3.33691 0.0389344 0.147807 0.0768289
91 1 0.125194 0.0498656 0.024803 0.0189869 -3.33478 -0.0133128 -0.00847487 0.0890743
96 1 0.150214 0.075067 0.0247536 0.0258264 -3.33731 -0.00538423 -0.0660675 0.088151
1690 1 0.125233 0.0749347 0.0498821 0.0145609 -3.33928 0.0171657 -0.00982146 0.00449963
95 1 0.175194 0.0497744 0.0253103 0.0200575 -3.33065 -0.00775684 0.0674718 -0.0458853
100 1 0.200262 0.0749851 0.0251054 0.0169677 -3.33259 -0.0851179 -0.0696369 0.00247276
175 1 0.175227 0.100024 0.0251738 0.0109585 -3.32869 0.0284137 -0.0428439 -0.0102067
1697 1 0.199829 0.0501506 0.0501513 0.0482304 -3.33312 0.125336 -0.118239 -0.0229152
1694 1 0.175134 0.075092 0.0500871 0.0180906 -3.33708 -0.0654185 -0.0854977 0.010783
1777 1 0.199981 0.0997486 0.0504873 0.0155025 -3.33205 0.0555795 -0.00336426 -0.0137034
99 1 0.225139 0.049905 0.0251586 0.0121604 -3.3483 -0.0177265 -0.0388604 0.00928362
103 1 0.274846 0.0500359 0.0250295 0.0132445 -3.33388 -0.0304441 -0.0320434 0.00271362
104 1 0.249838 0.0753146 0.0253204 0.0393142 -3.3176 -0.0370911 -0.136462 -0.0745108
1701 1 0.249859 0.0497097 0.0503312 0.0349019 -3.33821 0.106115 0.0239397 -0.0837884
1698 1 0.225211 0.0746793 0.0502095 0.0185702 -3.33055 -0.0638314 0.0609471 0.0391543
1702 1 0.274888 0.0748451 0.0496708 0.0283476 -3.33278 0.053239 -0.0243211 0.135809
107 1 0.324641 0.0500036 0.024942 0.0122038 -3.33332 0.111628 -0.0381955 0.0176102
108 1 0.29988 0.0748868 0.0247775 0.0139012 -3.3218 0.0245899 0.0627256 0.0474774
187 1 0.324965 0.0999366 0.0249798 0.0155844 -3.33921 0.0296949 0.0278361 -0.00928184
106 1 0.324772 0.0750029 0.000115678 0.00899298 -3.32883 0.0549405 0.0407974 -0.00116852
111 1 0.375003 0.0500665 0.0252854 0.0132017 -3.34015 0.0378352 0.0654372 -0.0484136
112 1 0.349595 0.0750345 0.0250901 0.0221506 -3.33313 0.0384195 -0.0549863 0.0481715
191 1 0.374697 0.0996942 0.0255099 0.0781907 -3.32965 0.0988197 0.0485697 -0.0829811
110 1 0.375059 0.0750201 0.000595678 0.036144 -3.33718 0.0729315 0.0302726 -0.0794652
116 1 0.400505 0.0752178 0.0251829 0.0631432 -3.33 -0.166515 -0.0947236 -0.00857164
1714 1 0.424901 0.0749185 0.0499219 0.0226277 -3.33383 0.0203406 0.0334636 0.137783
114 1 0.424994 0.074956 -0.000312989 0.0455369 -3.33774 -0.0215971 0.0318355 -0.00440336
113 1 0.399699 0.0496302 -3.94208e-05 0.0693313 -3.34169 0.0721185 0.11145 0.0666368
120 1 0.44941 0.075019 0.0246275 0.0677326 -3.32768 0.140412 0.0196108 0.0929422
1718 1 0.474777 0.0750536 0.049821 0.0169489 -3.34105 0.0656449 -0.0201191 0.00896143
118 1 0.474936 0.0751266 -0.000121492 0.0106054 -3.33272 0.0143096 -0.0257339 0.051242
123 1 0.524968 0.0495933 0.0250197 0.0351653 -3.32648 -0.0146667 0.117519 -0.0353597
124 1 0.500053 0.074883 0.0248765 0.01215 -3.33738 -0.00479513 -0.00599201 0.0435738
128 1 0.54978 0.0748869 0.0248648 0.0225131 -3.335 0.0979245 -0.0333027 0.0412576
122 1 0.524812 0.075465 -4.36793e-05 0.0569153 -3.32887 0.0779685 -0.157433 -0.028523
132 1 0.599751 0.0748701 0.0249369 0.0297986 -3.3424 0.0279903 0.0132149 -0.0421733
207 1 0.574888 0.0998922 0.0247449 0.0195948 -3.33887 0.0319989 0.0114867 0.0722676
126 1 0.574972 0.0748718 -7.54177e-05 0.0101502 -3.33203 0.0431226 0.00969798 0.0155727
209 1 0.600275 0.0999182 -2.29981e-05 0.0176664 -3.34037 -0.0592888 0.0499226 -0.0353478
131 1 0.625073 0.0499589 0.0252389 0.0249054 -3.33829 0.0085571 -0.0122481 -0.117412
133 1 0.649813 0.0500946 -2.50025e-05 0.0204307 -3.34137 0.0528269 -0.0194389 -0.0337255
136 1 0.650407 0.075238 0.0250008 0.0276514 -3.31628 -0.0734177 -0.0765057 -0.0727562
1813 1 0.649967 0.100206 0.0497496 0.0201136 -3.33798 0.00776675 -0.0441431 0.105026
130 1 0.625334 0.0752822 7.9508e-05 0.0258079 -3.34364 -0.0823411 -0.115214 -0.0379045
215 1 0.674911 0.100144 0.0248808 0.0101919 -3.3351 0.104654 0.0350293 -0.00486888
140 1 0.699983 0.0753285 0.0254328 0.0637313 -3.33675 -8.79976e-05 -0.0498733 -0.150711
143 1 0.774896 0.049958 0.0249435 0.0144603 -3.33184 -0.024198 0.0453264 -0.0159766
1738 1 0.725117 0.075085 0.0499419 0.0143564 -3.32954 -0.0420543 -0.0358973 0.0696904
144 1 0.749729 0.0750693 0.0251687 0.030387 -3.33676 0.12727 0.00885225 -0.0892883
1742 1 0.775077 0.074906 0.0502711 0.0299519 -3.33407 -0.0753322 0.0747224 -0.0647969
138 1 0.724555 0.0750015 -0.000248201 0.0545894 -3.33495 0.0957328 0.0739205 0.0848857
219 1 0.725103 0.100009 0.025198 0.021421 -3.33149 -0.0164139 0.0532577 -0.111808
223 1 0.774939 0.100218 0.0251171 0.0157633 -3.33374 0.0216716 -0.0426533 -0.0156658
1821 1 0.750181 0.1001 0.0498453 0.0185771 -3.32896 -0.0533546 0.00284922 0.0908661
147 1 0.824873 0.0498675 0.0249259 0.00690202 -3.32871 -0.00184967 0.0248856 0.0527481
148 1 0.799858 0.0750199 0.0251503 0.0118655 -3.33379 0.0381595 0.0143662 -0.0306262
227 1 0.825172 0.100043 0.0248249 0.0259763 -3.32467 0.0199939 -0.102985 0.0680305
1746 1 0.824846 0.074932 0.0498997 0.00672436 -3.34224 0.0262303 0.0427413 0.0571851
152 1 0.849903 0.0745156 0.0249592 0.0315786 -3.3324 0.00996291 0.117772 0.0395783
231 1 0.874692 0.0997919 0.0248519 0.01805 -3.33675 0.0178041 0.0486291 0.0387334
229 1 0.849828 0.0997876 -0.000126755 0.0142459 -3.33005 0.0284683 0.0144186 0.00626524
150 1 0.87514 0.0747953 0.000267864 0.0209666 -3.33393 -0.0478003 -0.0161485 -0.0590405
1750 1 0.874654 0.0750141 0.0502241 0.0194235 -3.33687 0.0403603 -0.0695145 -0.0494254
155 1 0.924909 0.0500464 0.0254402 0.0270316 -3.33712 -0.0202294 -0.0143884 -0.0981811
156 1 0.899834 0.0752473 0.0253755 0.042574 -3.32972 0.0207138 -0.160509 -0.0258814
1754 1 0.924755 0.0750114 0.0505407 0.0306018 -3.33399 0.062843 -0.0156932 -0.09249
154 1 0.924811 0.0746908 -6.08575e-05 0.0231417 -3.33202 0.0035666 0.0352347 0.0339566
1757 1 0.949976 0.0499816 0.0501231 0.0135194 -3.34226 0.0112613 -0.0460769 0.0739657
84 1 0.99994 0.0746304 0.0247977 0.0221577 -3.33884 0.00962132 0.0644821 0.0750823
160 1 0.949555 0.0747871 0.0251066 0.027383 -3.34378 0.0978605 0.0447943 0.0273754
1837 1 0.950034 0.1 0.0499486 0.0243486 -3.331 -0.0607712 -0.0975904 0.0333109
157 1 0.950011 0.0497833 -8.46405e-05 0.0212652 -3.32837 -0.0319393 0.0321163 0.10525
163 1 0.0248469 0.0999482 0.0251959 0.012442 -3.32628 -0.00993825 -0.0642749 -0.0327499
162 1 0.0248641 0.124707 1.91537e-05 0.0183167 -3.3424 0.0891835 0.0326912 -0.0508559
168 1 0.0498274 0.124876 0.0251478 0.00861392 -3.33398 -0.00193072 0.0104823 -0.0542171
167 1 0.0747368 0.0998149 0.0251329 0.0139684 -3.33722 0.128514 -0.0447753 -0.0263622
172 1 0.100079 0.125027 0.0250274 0.00973808 -3.33909 -0.0315577 -0.055054 0.00372919
171 1 0.125452 0.100174 0.024992 0.0319457 -3.34442 -0.134736 -0.0727193 0.0327414
1773 1 0.150286 0.0999456 0.0500908 0.00961764 -3.33815 -0.0441935 0.00329103 0.0566451
176 1 0.15046 0.124834 0.0249569 0.0184147 -3.3328 -0.0605535 0.0474073 0.0163366
253 1 0.150202 0.14986 -0.000440445 0.0305584 -3.33791 -0.0382423 -0.024078 0.137115
170 1 0.124889 0.124844 0.000256873 0.0318681 -3.33853 0.0491249 0.0253677 -0.0372554
1770 1 0.125439 0.125146 0.0502416 0.041351 -3.33129 -0.140318 -0.10306 -0.0819092
1853 1 0.150125 0.149694 0.0500576 0.0291469 -3.33558 0.106404 0.128107 0.0320243
180 1 0.200152 0.124614 0.0250955 0.0184683 -3.33118 -0.036648 0.134981 0.0379044
1774 1 0.175471 0.124929 0.050646 0.0530571 -3.33125 -0.0741077 -0.0208893 -0.103394
1857 1 0.19977 0.149899 0.0501713 0.0301287 -3.33621 0.0844452 0.013851 -0.0198128
179 1 0.224605 0.0997392 0.0253243 0.0453006 -3.32715 0.184701 0.115925 0.0267513
1781 1 0.250122 0.0996933 0.050305 0.0220736 -3.33703 -0.0791809 0.115397 -0.0165687
183 1 0.274758 0.0999346 0.0252838 0.017511 -3.32263 0.105915 0.036111 -0.0234878
184 1 0.250203 0.124906 0.0254286 0.0173223 -3.34276 -0.0766362 -0.0342886 -0.0126702
1782 1 0.275208 0.124941 0.0505752 0.0374552 -3.33281 -0.0633014 0.014244 -0.0833496
182 1 0.275016 0.125079 0.000347958 0.0142872 -3.33659 -0.0489801 -0.00917521 -0.0768716
1778 1 0.224728 0.124775 0.0504288 0.0253181 -3.3409 0.0357407 0.0101812 -0.0827588
1785 1 0.300109 0.099938 0.0496923 0.0365914 -3.33373 -0.0877269 0.00094246 0.0695206
188 1 0.299577 0.125012 0.0253154 0.042848 -3.33164 0.0530148 -0.0386007 -0.026048
186 1 0.324715 0.124819 0.000312737 0.042852 -3.33759 0.0689726 0.0303065 -0.0602383
185 1 0.299836 0.100067 1.14694e-05 0.0116114 -3.3404 0.00183792 -0.0201448 0.0257618
1789 1 0.350036 0.0999291 0.0501903 0.0233585 -3.33284 -0.0630194 0.0415966 -0.0390748
192 1 0.350343 0.124843 0.0245341 0.0804112 -3.3338 -0.0211479 0.0378558 0.117768
1790 1 0.375053 0.125249 0.0500484 0.0237582 -3.34188 0.000254197 -0.0891998 0.00130957
190 1 0.37514 0.125338 -9.60935e-05 0.0287153 -3.33375 -0.0346906 -0.0867543 -0.0476447
271 1 0.374927 0.15011 0.0246741 0.012632 -3.33915 -0.0267245 0.0105646 0.0622406
1793 1 0.400107 0.100024 0.0501886 0.0146191 -3.34376 -0.0423246 -0.00380609 0.0276641
195 1 0.424956 0.100157 0.0251421 0.0125647 -3.32017 0.072044 0.0450853 0.00214528
196 1 0.399757 0.124904 0.0249269 0.0276526 -3.34158 0.0515181 0.026769 0.0385784
1873 1 0.399848 0.150107 0.0497958 0.0120268 -3.32407 -0.0579501 -0.0200773 0.0387144
275 1 0.424579 0.150162 0.0251571 0.0243911 -3.34152 0.0722787 -0.0283601 -0.0622257
1794 1 0.424833 0.125299 0.0502644 0.0163389 -3.33763 -0.00554446 -0.0676416 -0.0754367
194 1 0.425332 0.125148 -3.19208e-05 0.0305714 -3.32873 -0.156178 -0.038424 0.0130006
199 1 0.474962 0.099743 0.0251317 0.0313121 -3.34249 -0.0419507 0.0556023 -0.0391767
200 1 0.449752 0.125155 0.0251842 0.0142611 -3.34355 0.0975245 -0.0307852 0.0382205
197 1 0.449978 0.100245 -8.31756e-05 0.0146249 -3.33837 -0.0105274 -0.0729475 0.0296191
198 1 0.474851 0.124971 -0.0001468 0.0187864 -3.3286 0.0106947 -0.00607624 0.0303641
203 1 0.525293 0.099674 0.0249079 0.0390303 -3.33989 -0.0682161 0.144723 0.00248897
204 1 0.49978 0.124566 0.0244713 0.087366 -3.34252 0.0737178 0.0523219 0.111616
208 1 0.550339 0.125054 0.0250795 0.0198503 -3.33776 -0.0318255 -0.0517343 -0.0209286
202 1 0.525504 0.125183 -0.000111964 0.0470861 -3.33893 -0.0893337 -0.0883109 0.0150488
201 1 0.499898 0.0999267 -0.000246635 0.0201155 -3.33176 0.0104012 0.10344 0.0815034
212 1 0.599898 0.125105 0.0248865 0.0130629 -3.34306 0.0310003 -0.044041 0.0361613
206 1 0.575298 0.12501 -0.000211065 0.0121998 -3.34078 -0.0286179 -0.000752083 -0.0531805
211 1 0.625379 0.0999483 0.0248137 0.0164824 -3.33188 -0.0822242 0.0637633 -0.00660749
216 1 0.650096 0.125164 0.0246236 0.0270068 -3.33443 -0.00580136 0.0207515 0.0759192
210 1 0.625138 0.125368 2.84205e-05 0.0317665 -3.33609 -0.0731853 -0.0992322 -0.0708583
1810 1 0.625145 0.125029 0.0501259 0.0197692 -3.34055 -0.0972767 0.0344479 -0.0461822
213 1 0.650284 0.100237 -0.000232141 0.00811973 -3.33141 -0.0296286 0.0122675 0.00424559
220 1 0.700134 0.125013 0.0249109 0.0119147 -3.3441 0.00868598 0.00191382 -0.0064646
217 1 0.700166 0.100471 -0.000408594 0.0525774 -3.34025 -0.0243445 -0.102811 0.130075
214 1 0.675227 0.125372 -0.000371896 0.0257622 -3.33672 -0.0877654 -0.0470487 0.0603222
1818 1 0.725455 0.125156 0.0498197 0.040146 -3.34079 -0.122995 -0.0268942 0.0480815
224 1 0.750161 0.125239 0.0249326 0.0181077 -3.32201 -0.0369097 -0.0895337 0.0201803
1901 1 0.749801 0.150104 0.0499323 0.0129799 -3.33341 0.0148838 -0.0109167 0.0318503
218 1 0.725542 0.124856 -0.000130833 0.0381775 -3.33916 -0.116666 0.0581217 -0.000783256
222 1 0.775112 0.125143 6.62294e-05 0.0113774 -3.33206 -0.0179735 -0.0727806 -0.00464061
301 1 0.750468 0.149816 0.000154609 0.0407296 -3.32393 -0.0539714 0.0991652 -0.0769041
228 1 0.800775 0.12496 0.025025 0.0834084 -3.33376 -0.206767 0.0272186 0.0813542
307 1 0.825073 0.149808 0.0254161 0.0222067 -3.32918 -0.017434 0.135685 -0.0367458
225 1 0.799814 0.100196 0.000299598 0.0342038 -3.32893 0.0843183 -0.058271 -0.0720445
305 1 0.799972 0.149956 0.000287631 0.0129728 -3.33721 -0.0267873 0.087698 -0.0138115
232 1 0.849635 0.124808 0.0249325 0.0263508 -3.32102 0.0609535 0.0243717 0.0513696
311 1 0.87484 0.149695 0.0251767 0.0138212 -3.34016 0.0380291 0.0231949 0.0171847
1909 1 0.849767 0.149889 0.050347 0.0136463 -3.33081 0.0568495 0.025917 -0.0283199
309 1 0.850139 0.150091 0.000262719 0.0105049 -3.33303 -0.0621318 0.0319889 -0.026775
235 1 0.924519 0.0996622 0.02501 0.0344813 -3.33094 0.128246 0.0887887 0.0335821
236 1 0.899947 0.124724 0.0248766 0.00994453 -3.34483 0.0228019 0.0252659 0.013155
1913 1 0.900397 0.149699 0.0498971 0.0417206 -3.33794 -0.0983386 -0.0304492 -0.0324676
233 1 0.899983 0.0995836 -0.000154936 0.0340656 -3.33746 -0.00981639 0.0982011 -0.000708342
234 1 0.925397 0.124543 -3.95172e-05 0.0282445 -3.33494 -0.0354671 0.0507989 0.0179355
237 1 0.950051 0.0995366 0.000210536 0.0278805 -3.33979 0.0259426 0.106683 -0.0130241
164 1 1.00054 0.12495 0.0249826 0.0492697 -3.33458 -0.165467 0.0296083 0.0568549
239 1 0.975247 0.0999546 0.0254297 0.0458539 -3.33965 -0.0168612 -0.0752364 -0.143074
240 1 0.950172 0.124783 0.0249267 0.0106472 -3.34206 -0.0216604 -0.00298018 -0.0142575
238 1 0.975461 0.124805 -5.83003e-05 0.0242757 -3.35024 -0.0928199 -0.0210984 0.0303184
243 1 0.0251897 0.149928 0.0252784 0.0149489 -3.32727 -0.0903098 0.000592845 -0.0447744
248 1 0.0497547 0.17482 0.0249747 0.0220122 -3.3301 0.111249 0.0343894 0.0676817
244 1 -7.8346e-05 0.174911 0.0250068 0.0157317 -3.32898 0.0954004 -0.0050497 0.0646579
245 1 0.0499703 0.149711 9.09235e-05 0.0120369 -3.33892 0.0191388 -0.00278594 0.00328044
247 1 0.0750671 0.150059 0.0253067 0.0330441 -3.33294 -0.014744 -0.0679179 -0.112784
252 1 0.10018 0.174741 0.0252677 0.0167924 -3.33457 0.0291516 0.0580254 -0.0995038
327 1 0.0751503 0.199692 0.0250527 0.0139279 -3.33453 -0.0162073 -0.0231119 -0.027781
1849 1 0.100075 0.150053 0.0500632 0.0111254 -3.33006 0.0277226 -0.0772431 -0.0157686
251 1 0.125036 0.149888 0.0250275 0.00947281 -3.33577 0.0568215 -0.0205396 -0.029458
256 1 0.14997 0.174751 0.0246253 0.047292 -3.3377 0.0865634 0.0220204 0.166146
1933 1 0.150048 0.200131 0.0504187 0.0231945 -3.33355 0.0674362 -0.065206 -0.0601582
255 1 0.174883 0.149686 0.0250836 0.0213268 -3.33826 0.062237 0.0409969 -0.0285338
260 1 0.199932 0.174554 0.0246641 0.0500923 -3.3483 0.0543311 0.0360431 0.126873
254 1 0.174894 0.174773 -0.000148088 0.00677633 -3.32541 0.0263708 0.0164405 0.0232372
1854 1 0.175292 0.175092 0.0503891 0.0359987 -3.3443 -0.164915 -0.0717095 -0.115031
259 1 0.225111 0.149656 0.0252007 0.0174902 -3.33835 -0.102684 0.0312286 -0.00986562
263 1 0.275017 0.150008 0.0253499 0.0145675 -3.33788 -0.0266246 -0.0282671 -0.0533462
1861 1 0.249908 0.149897 0.0501209 0.0139027 -3.33685 0.052306 -0.035322 0.0644733
264 1 0.249758 0.174722 0.0252412 0.024078 -3.33277 0.0392793 0.004826 -0.0826699
261 1 0.249481 0.149806 0.000107207 0.0461214 -3.33279 0.127571 0.0173613 0.00847379
1858 1 0.225076 0.174849 0.0503939 0.0324283 -3.33291 -0.0943917 0.00723306 -0.158102
1862 1 0.275319 0.174622 0.0499095 0.0290007 -3.34373 -0.0510912 0.0690085 0.0584609
267 1 0.325074 0.149631 0.0253259 0.0593384 -3.33696 0.0097001 0.0817866 -0.137
268 1 0.300064 0.174813 0.0249009 0.00878902 -3.33956 0.0522955 0.0591285 0.0179713
266 1 0.324966 0.175047 -0.00018176 0.0165665 -3.33016 -0.0307055 0.0477981 0.0409555
265 1 0.300212 0.149817 0.000109968 0.0156948 -3.3314 0.0124231 0.0386911 0.0396238
269 1 0.349765 0.150374 -1.4755e-05 0.0384533 -3.34272 -0.000198806 -0.109526 -0.0189313
272 1 0.349532 0.17542 0.0246626 0.0726316 -3.337 0.103271 -0.108818 0.0613564
351 1 0.375074 0.200275 0.025038 0.0265374 -3.33318 -0.0304349 -0.0627678 -0.02245
1869 1 0.349969 0.149708 0.0500179 0.0273941 -3.3277 0.0103723 0.0791039 -0.0662531
273 1 0.400018 0.150043 -0.000245775 0.0119571 -3.33009 0.0450227 -0.017504 0.0585711
276 1 0.399667 0.175159 0.0249179 0.0232489 -3.33245 0.101684 -0.0394328 -0.0380589
355 1 0.424713 0.199894 0.0246993 0.0218863 -3.33973 0.0648543 0.0242004 0.00590628
1874 1 0.424818 0.175021 0.0498882 0.00784017 -3.32259 -0.0171596 0.00682547 0.00578218
353 1 0.40016 0.199789 -0.00054956 0.0594897 -3.32919 -0.0383205 0.0529137 0.183809
274 1 0.425212 0.17484 -0.000282224 0.0323025 -3.3361 -0.0509475 0.00343357 0.114802
279 1 0.474982 0.1499 0.0252884 0.0263209 -3.34193 4.84715e-05 0.015094 -0.0868757
1877 1 0.449841 0.150286 0.0502409 0.0136986 -3.32887 0.0278629 -0.103913 -0.0832575
280 1 0.449744 0.175126 0.0248726 0.0220111 -3.33843 0.0353156 -0.0834814 -0.0323684
278 1 0.474988 0.174939 -1.92013e-05 0.00535238 -3.3425 -0.0391973 -0.0593314 -0.00536345
281 1 0.500059 0.15003 -2.55199e-05 0.0124555 -3.34406 0.00357694 0.000899319 0.0180478
284 1 0.500034 0.174999 0.0249762 0.00649997 -3.33651 0.0171212 -0.0395598 -0.0039436
357 1 0.450193 0.200209 -0.000169975 0.0293719 -3.32707 -0.0471508 -0.0725181 0.0776633
283 1 0.524929 0.149702 0.0250546 0.0272177 -3.33847 0.00237293 0.0463622 -0.0265151
1885 1 0.550264 0.149847 0.0497593 0.02687 -3.32536 -0.146679 -0.0114635 0.021781
288 1 0.549928 0.175055 0.0246968 0.0194161 -3.33072 -0.00556725 0.0108787 0.0471697
363 1 0.524833 0.199827 0.02499 0.018735 -3.34643 0.0606511 0.0727139 0.0156859
282 1 0.525263 0.175008 -1.65999e-05 0.0107977 -3.33543 -0.0606575 -0.048945 -0.02025
287 1 0.575025 0.150402 0.0250335 0.0270423 -3.32575 0.0743248 -0.106832 -0.0773906
1886 1 0.574764 0.17502 0.0496197 0.027507 -3.32155 -0.00702861 0.0676055 0.0526365
292 1 0.599743 0.175345 0.0248334 0.012832 -3.32217 0.0454373 -0.0644997 0.0616956
289 1 0.599922 0.150141 -0.000336924 0.0156181 -3.33567 0.0159169 -0.021658 0.0699988
286 1 0.575229 0.17531 -0.000130736 0.0152407 -3.32685 -0.082847 -0.0650117 -0.0133878
291 1 0.6246 0.149971 0.025229 0.0441904 -3.33763 0.0262755 0.0340586 -0.0656308
296 1 0.649993 0.174568 0.0251547 0.0482502 -3.3282 -0.0441691 0.101657 -0.0465627
1973 1 0.650246 0.199881 0.0501126 0.0271704 -3.32747 -0.093921 0.0178344 -0.0827956
293 1 0.649545 0.150324 -0.000136441 0.0494471 -3.33757 0.0831004 -0.0282563 0.0382103
295 1 0.675131 0.149734 0.0248692 0.0361884 -3.33301 -0.0562403 0.0269513 0.0238633
300 1 0.699664 0.174868 0.0250565 0.0302076 -3.33455 0.12233 0.067929 -0.0194727
375 1 0.674851 0.199799 0.024832 0.0225114 -3.33244 0.0350016 0.0524167 0.0852606
297 1 0.700012 0.150202 -0.000223644 0.0185301 -3.3345 0.0300482 -0.0504508 0.0329484
294 1 0.674693 0.175006 0.000443715 0.0613559 -3.32533 0.0478344 -0.0353695 -0.174757
299 1 0.725196 0.15011 0.0243684 0.0574969 -3.33128 -0.0801074 -0.0283665 0.13625
303 1 0.775012 0.149867 0.0253714 0.0250639 -3.33865 0.0557181 0.0800796 -0.0609579
304 1 0.749797 0.175254 0.0248893 0.0152744 -3.33197 0.100545 -0.0403576 0.0352333
298 1 0.725164 0.175051 5.21713e-05 0.0253636 -3.33604 -0.0498639 0.0184915 -0.0483027
1902 1 0.774612 0.174958 0.0502782 0.016805 -3.3284 -0.0117493 0.0813492 -0.0918249
1905 1 0.799859 0.150315 0.0503271 0.0197603 -3.32785 0.0320547 -0.0930261 -0.0710943
308 1 0.799689 0.175153 0.025558 0.0248896 -3.34146 0.0247893 -0.0511767 -0.0826159
1985 1 0.799595 0.200319 0.0501363 0.0284714 -3.3393 0.0594086 -0.11987 -0.0124864
306 1 0.824865 0.174804 0.00069626 0.0406913 -3.348 0.0105158 0.056416 -0.0978127
312 1 0.850136 0.17495 0.0256494 0.0235663 -3.33829 -0.0222215 -0.0151023 -0.067092
315 1 0.925279 0.149762 0.0245153 0.0450001 -3.33378 -0.053398 -0.000457586 0.0803945
316 1 0.899706 0.174728 0.0251698 0.0300876 -3.33607 0.0679746 0.0241767 -0.00535918
314 1 0.925049 0.174914 0.000166903 0.0129387 -3.34363 0.0117078 0.00991841 -0.00900195
1917 1 0.949603 0.149979 0.0497987 0.0478227 -3.32839 0.0968508 -0.100582 0.054797
319 1 0.975147 0.150096 0.0253315 0.0394182 -3.33284 -0.020538 -0.173102 -0.0537752
320 1 0.950239 0.174975 0.025166 0.0210856 -3.32486 -0.0898429 -0.0287893 -0.0855336
1918 1 0.974897 0.174505 0.0499717 0.0395434 -3.32928 0.030485 0.113382 0.0986648
399 1 0.974909 0.199663 0.0254564 0.0277544 -3.32128 0.0238375 0.0463421 -0.123222
241 1 0.999994 0.150101 0.000148625 0.0223324 -3.33627 0.0617534 -0.0884091 0.00827764
317 1 0.950401 0.149789 -8.52523e-05 0.0143923 -3.33171 -0.0678014 -0.0281523 0.0394497
325 1 0.0503329 0.199963 -0.000203303 0.0323396 -3.33143 -0.0620691 -0.0450286 0.0882823
323 1 0.0250478 0.199654 0.0251438 0.010417 -3.33606 0.0294396 0.0481926 0.0027931
328 1 0.0503041 0.224587 0.0250137 0.021327 -3.34562 -0.0253477 0.0437371 0.0247149
322 1 0.0252953 0.22484 9.14529e-05 0.0173461 -3.33292 -0.0374271 -0.0434522 0.0509683
1922 1 0.0247489 0.224871 0.0503162 0.035376 -3.34277 0.134529 -0.0573634 -0.0630319
332 1 0.0994919 0.224868 0.0250037 0.0516274 -3.33224 0.151419 -0.00916405 -0.056853
407 1 0.0750696 0.249943 0.0249195 0.010987 -3.32782 -0.0216061 -0.0471866 -0.0286841
1926 1 0.0753441 0.224987 0.0500281 0.0142827 -3.32954 -0.0741207 -0.0321088 0.0555503
409 1 0.0997995 0.250128 -0.000361514 0.0408286 -3.34082 0.0743534 -0.0587557 0.0912238
331 1 0.125035 0.199817 0.0253235 0.0182988 -3.33326 -0.0339686 0.0164853 -0.045634
336 1 0.149658 0.22473 0.0253913 0.0321563 -3.33118 0.147319 0.038018 -0.031454
1930 1 0.124774 0.225089 0.050302 0.0241287 -3.32185 0.057355 -0.0557267 -0.0669879
2013 1 0.149976 0.24962 0.0502365 0.0172645 -3.33727 0.0159729 0.0863166 -0.0592987
330 1 0.125194 0.224838 0.000498369 0.0470731 -3.33737 -0.0960462 0.0116078 -0.114206
335 1 0.17511 0.199925 0.0251885 0.0150491 -3.33577 -0.088569 -0.0431904 0.0128728
1937 1 0.199929 0.19987 0.0498319 0.0356328 -3.33648 0.117427 0.0540547 0.0514351
340 1 0.200082 0.224801 0.0250076 0.00972575 -3.33203 0.0305255 0.0241536 0.0983863
415 1 0.174977 0.249827 0.0248432 0.0225504 -3.3363 -0.0204172 -0.0653962 0.104354
1934 1 0.175041 0.224961 0.0502488 0.00919847 -3.33365 0.0685538 -0.00269743 -0.0465818
339 1 0.225156 0.19977 0.0249865 0.011486 -3.33214 -0.0958768 0.0080441 0.0154115
343 1 0.27482 0.200047 0.0248393 0.0161915 -3.32861 0.068487 -0.0575763 0.0293382
344 1 0.249911 0.225019 0.0251935 0.0197535 -3.32978 -0.00661545 0.0129924 -0.0974663
419 1 0.224836 0.249925 0.0252019 0.0231079 -3.33109 0.0727581 -0.0178136 -0.0476442
1942 1 0.274976 0.224997 0.0499474 0.00869664 -3.34014 0.016385 0.00153548 0.0491176
1938 1 0.225471 0.225074 0.0501957 0.0346863 -3.34015 -0.109937 -0.0802187 -0.0266117
347 1 0.324926 0.200254 0.0247442 0.0165197 -3.3408 -0.0444116 -0.0280428 -0.0375554
348 1 0.300065 0.225034 0.0247742 0.00957958 -3.33392 -0.0341333 0.0117081 -0.0287166
346 1 0.32501 0.224944 -0.000397268 0.0218269 -3.34622 -0.0166726 -0.0263512 0.0750057
1945 1 0.300022 0.20022 0.0498867 0.020932 -3.33713 -0.026774 -0.0740479 -0.0378105