ITEM: TIMESTEP
10250
ITEM: NUMBER OF ATOMS
32000
ITEM: BOX BOUNDS pp pp pp
4.1479130220837979e+00 7.6852086977911043e+01
-1.6793828496808700e+00 8.2679382849675022e+01
-1.6787344376499220e+00 8.2678734437645900e+01
ITEM: ATOMS id type xs ys zs c_csym c_peratom fx fy fz
8 1 0.050265 0.024655 0.0248418 0.0256092 -3.31983 -0.0647194 0.110514 0.0611776
4 1 0.000196922 0.0251084 0.0246334 0.0285745 -3.3164 0.0833227 -0.0278427 0.0792506
1602 1 0.0254285 0.0248196 0.0499295 0.0195763 -3.31692 0.00126918 0.0404846 -0.0472866
85 1 0.049965 0.0502364 -7.00411e-05 0.0257265 -3.31051 0.116715 -0.0762311 0.0121273
83 1 0.0249941 0.0499115 0.0245949 0.0324007 -3.32541 0.0990482 -0.0395389 0.173571
1681 1 0.000225605 0.0496937 0.0502056 0.0328434 -3.31899 0.0390912 -0.0177213 -0.111549
1685 1 0.0502744 0.0495935 0.0500512 0.0238543 -3.33113 -0.0986596 0.0931475 -0.0635229
12 1 0.0999269 0.0249914 0.0248949 0.0345112 -3.31459 0.0903507 0.0788476 0.0779809
6 1 0.0750046 0.0252572 0.000137403 0.0194503 -3.32237 0.0130889 -0.010147 -0.107463
87 1 0.0751963 0.0499661 0.0246988 0.0329606 -3.3211 -0.0651918 0.00535576 0.106453
7 1 0.0752168 0.000274395 0.0251969 0.018047 -3.30519 0.0027419 -0.0826591 -0.0803686
1609 1 0.100479 0.000202944 0.0498883 0.0223579 -3.31695 -0.0367635 -0.0532607 0.0124155
16 1 0.150225 0.0248255 0.0253552 0.0285576 -3.31577 0.00997211 0.0724715 -0.0424564
10 1 0.12509 0.0255219 0.000339501 0.0343298 -3.31781 0.0451448 -0.114738 -0.0132341
15 1 0.17526 0.000227036 0.0249709 0.0232843 -3.31937 0.0654016 -0.0690701 0.0238953
11 1 0.125069 0.000257472 0.0246229 0.0407049 -3.31859 0.0142956 -0.052361 0.0945017
14 1 0.175035 0.0252382 -6.97304e-06 0.0141607 -3.31382 0.0351931 -0.0709508 0.0436314
13 1 0.15043 0.000149346 0.000121033 0.0208362 -3.31959 -0.0433008 -0.0104476 0.00397771
20 1 0.20012 0.0252059 0.0248269 0.019334 -3.31358 -0.0143658 -0.0732609 0.0334102
99 1 0.225624 0.0496037 0.0251575 0.0612826 -3.31643 -0.0937881 0.104116 -0.012568
18 1 0.225416 0.0250776 -2.61433e-05 0.0135002 -3.31775 -0.0580622 -0.0385533 0.0327364
24 1 0.250648 0.0250696 0.0249892 0.0363088 -3.31483 -0.06863 -0.027314 0.0624804
1621 1 0.250263 -2.89955e-05 0.050405 0.0335723 -3.31581 -0.0934934 0.0499469 -0.14972
103 1 0.275009 0.0502251 0.0254479 0.0297921 -3.32457 0.0494466 -0.115001 -0.0514058
23 1 0.275017 0.000280048 0.0252499 0.0232191 -3.31411 -0.00646961 -0.109703 -0.0663467
22 1 0.275175 0.0248643 -5.51096e-06 0.0134107 -3.31537 0.0580552 0.0680963 0.0330596
28 1 0.300087 0.0248606 0.0251579 0.00874462 -3.3341 0.0327213 0.0783921 0.0224236
26 1 0.324994 0.0250735 -0.000167653 0.0248375 -3.32658 0.00162572 -0.0595695 0.0223637
32 1 0.349591 0.024869 0.0250759 0.0208836 -3.31754 0.0384732 0.00107264 0.011486
25 1 0.300065 -5.92e-06 0.000126982 0.0235294 -3.32095 -0.0110903 0.0395678 -0.0427613
30 1 0.374344 0.0246743 2.59368e-05 0.0463872 -3.32611 0.122958 0.0598408 0.0460069
36 1 0.399898 0.0245757 0.0250108 0.0371047 -3.3215 -0.074274 0.049683 -0.0732275
111 1 0.374866 0.0497968 0.0251373 0.0204062 -3.32411 0.0190978 -0.0130923 -0.127178
1713 1 0.399718 0.0501206 0.049777 0.0133922 -3.30291 -0.00275108 0.00597953 0.04387
115 1 0.424605 0.0499796 0.0247153 0.0246072 -3.3278 0.0512258 -0.031302 0.0970781
34 1 0.425143 0.024918 0.000277575 0.0206335 -3.32129 -0.0545192 -0.00108523 -0.0654931
40 1 0.450162 0.0246958 0.0250426 0.0356118 -3.31912 -0.0695119 0.0882716 0.0888916
1634 1 0.42442 0.0254021 0.049829 0.0670567 -3.31763 0.118427 -0.159375 0.00324282
117 1 0.450054 0.0498955 0.000388401 0.0262733 -3.31561 -0.030329 0.0230557 -0.0894163
44 1 0.500307 0.0250392 0.0247168 0.016375 -3.31903 -0.0753154 -0.00342337 0.00957751
123 1 0.52503 0.0502042 0.0250279 0.0156323 -3.32419 0.0569692 -0.0231174 -0.00884362
38 1 0.474804 0.024873 -2.30132e-05 0.0154364 -3.31345 0.106744 0.00665144 0.0200208
121 1 0.499835 0.0499529 0.000316641 0.0206343 -3.323 0.00979034 -0.0262669 -0.0536127
119 1 0.474769 0.0500087 0.0251748 0.0152094 -3.32103 0.046108 -0.0170946 0.0222636
39 1 0.475317 0.000164589 0.024676 0.0233049 -3.32745 -0.0450969 -0.0816743 0.082258
1721 1 0.500003 0.049965 0.0499449 0.0175777 -3.32787 0.0139379 0.0859114 0.0318135
1638 1 0.475325 0.0252166 0.0499396 0.0301985 -3.31971 -0.0847256 -0.079913 -0.021097
1642 1 0.525057 0.0249253 0.0495766 0.0212322 -3.31834 -0.0383151 0.0765643 0.090962
1641 1 0.500182 8.14505e-05 0.049637 0.00963872 -3.32021 -0.0396313 -0.00300488 0.0681821
48 1 0.550286 0.0250113 0.0247916 0.0132664 -3.31534 -0.0870329 0.0560753 0.0245655
127 1 0.575321 0.049964 0.0252199 0.0365902 -3.32694 -0.103624 0.0526091 -0.110709
1646 1 0.575087 0.0250716 0.0497739 0.0113388 -3.31874 -0.0437926 0.0230345 0.0905495
47 1 0.574974 3.53098e-05 0.0250346 0.0110613 -3.31178 0.0699084 -0.027375 -0.0781802
46 1 0.574945 0.0253902 2.86898e-05 0.037748 -3.31068 0.0569364 -0.0859091 0.0245524
45 1 0.550145 1.0299e-05 -0.000152597 0.00748805 -3.32747 -0.000285351 -0.0594976 0.0242691
52 1 0.600127 0.0249093 0.0249029 0.0147159 -3.32155 0.0170392 -0.010946 -0.0136119
131 1 0.624958 0.0499147 0.0247201 0.0217104 -3.3179 -0.0227211 0.061416 0.106629
51 1 0.625427 2.45499e-05 0.0253199 0.047099 -3.30873 -0.210812 -0.0133715 -0.11723
1649 1 0.599796 0.000308806 0.0500779 0.0275227 -3.3206 0.0428923 -0.082282 -0.036287
56 1 0.649697 0.0247415 0.0249354 0.04588 -3.30431 0.134238 0.134056 0.0401571
60 1 0.700124 0.0252075 0.0249305 0.0283097 -3.32292 -0.108292 0.059344 -0.00264113
1657 1 0.699846 0.000127512 0.0501398 0.0219304 -3.32318 0.0134692 0.100511 -0.0629774
57 1 0.699441 0.000284592 -6.82463e-05 0.0210644 -3.30533 0.126864 -0.0567605 0.046326
1733 1 0.649771 0.0501857 0.0500275 0.0138191 -3.30746 0.0284485 -0.0128215 -0.0236452
64 1 0.749954 0.0255532 0.0244764 0.0267531 -3.32637 -0.0348929 -0.0778304 0.0845258
59 1 0.724647 0.000461458 0.0247671 0.013347 -3.32028 0.0330896 -0.0602104 0.0115403
1658 1 0.724901 0.0255086 0.0499346 0.0176474 -3.32246 0.0266029 -0.105284 -0.0448777
1661 1 0.749828 0.000244931 0.0494261 0.0237262 -3.33106 -0.0551121 -0.0117269 0.0650283
68 1 0.79998 0.0252138 0.0250502 0.0171625 -3.32487 -0.11423 -0.00514039 -0.00752603
63 1 0.7748 0.000317343 0.0243359 0.0344491 -3.31555 0.0405835 0.0246165 0.11941
1665 1 0.799448 0.000271147 0.0498435 0.0219944 -3.31911 0.0788567 -0.0306591 -0.0104515
72 1 0.850045 0.0253677 0.0251074 0.0266524 -3.32233 -0.000261471 -0.167494 -0.0452909
71 1 0.874903 -0.000235165 0.025323 0.0534736 -3.32677 0.0606893 0.160842 -0.04497
69 1 0.850394 1.2764e-05 0.000352544 0.0542764 -3.33593 -0.15943 0.0301957 -0.0586867
1666 1 0.825017 0.0253493 0.0500434 0.0177221 -3.31736 0.0231722 -0.0614851 -0.0388715
67 1 0.824685 0.000206205 0.025204 0.013111 -3.32244 0.0372002 0.0268562 -0.0784605
1670 1 0.874955 0.0252864 0.0498289 0.0190532 -3.33257 -0.0146751 -0.137938 0.0359777
1669 1 0.849601 -2.80519e-07 0.0500411 0.032964 -3.32221 0.113415 0.0720132 0.0417209
76 1 0.900432 0.0250695 0.0248416 0.0324872 -3.31837 -0.131366 -0.128762 0.0802219
1674 1 0.92536 0.0246458 0.0500117 0.0368279 -3.3225 -0.0425784 0.122011 0.0248113
1753 1 0.900165 0.0498391 0.0499878 0.0144186 -3.32248 -0.0224523 0.0171418 0.051525
74 1 0.925018 0.0246917 -5.87763e-05 0.0237763 -3.3099 0.0703941 0.0583167 -0.0122542
80 1 0.949834 0.025123 0.0247934 0.0372287 -3.31815 0.0435922 -0.0722858 0.0430055
1678 1 0.975077 0.0248173 0.0496045 0.0194513 -3.32771 -0.0417027 -0.00310591 0.0515982
79 1 0.975445 0.000168227 0.0249461 0.0236075 -3.32076 -0.0708486 -0.0417462 0.0395515
159 1 0.975062 0.0498399 0.0250886 0.0122233 -3.31175 0.0534093 -0.00648058 -0.0538292
157 1 0.950017 0.0499221 5.3791e-05 0.00851423 -3.32944 0.0383263 -0.0191439 0.00225175
88 1 0.0504022 0.0750895 0.0248514 0.0363737 -3.3217 -0.0559087 -0.0569824 0.0741093
82 1 0.0250822 0.0746059 0.00017136 0.0287203 -3.3092 -0.0454962 0.188197 -0.0349464
163 1 0.0249942 0.099616 0.0253883 0.04301 -3.32195 -0.012765 0.0713236 -0.144121
1765 1 0.0497238 0.0999145 0.0500463 0.0304023 -3.31995 0.041682 0.0113631 0.0100019
92 1 0.0998704 0.0749893 0.0256471 0.0496341 -3.32771 0.0559382 0.0431951 -0.0933821
86 1 0.0753683 0.075278 2.91666e-05 0.0263448 -3.31794 0.0226012 0.01227 0.0214783
89 1 0.100264 0.0504251 0.000207941 0.0269033 -3.31262 -0.0109112 -0.0619203 0.0143993
1686 1 0.0747238 0.0748322 0.0499497 0.0362541 -3.32072 0.0545127 0.0219264 0.0664128
91 1 0.125461 0.0500788 0.0254861 0.0256609 -3.32951 -0.078457 -0.0126392 -0.022121
95 1 0.175085 0.0498726 0.0249526 0.0209137 -3.31859 -0.0808647 0.0447956 0.107584
93 1 0.150081 0.0501447 0.000290296 0.008838 -3.31307 0.0427844 0.0479644 0.0118423
96 1 0.150184 0.0751018 0.0256025 0.0257017 -3.32013 0.0362527 -0.0480251 -0.109548
175 1 0.175248 0.099971 0.0251185 0.00807697 -3.322 -0.0140138 -0.00994574 0.0114875
90 1 0.125085 0.0750154 0.000428661 0.0088862 -3.32416 0.0289707 0.020842 -0.0253005
100 1 0.200079 0.0747192 0.025286 0.0197628 -3.32264 -0.00697974 0.0238513 -0.0419767
1698 1 0.224954 0.0749024 0.0501454 0.0134821 -3.31601 0.0271811 0.0253807 0.0368115
98 1 0.224994 0.0748037 0.000277359 0.0139203 -3.32328 0.0278415 -0.0153078 -0.04302
104 1 0.249947 0.07499 0.0252584 0.00764766 -3.30686 -0.00700069 0.0169705 -0.0164591
183 1 0.274947 0.100109 0.0252043 0.0116874 -3.31974 -0.0258183 -0.0509333 0.00879586
102 1 0.274846 0.0747432 0.000474925 0.0359478 -3.31379 0.0404799 0.0385805 -0.095575
107 1 0.325064 0.0501135 0.0255979 0.0418834 -3.31542 -0.0481782 -0.080347 -0.10071
108 1 0.29989 0.0749555 0.02526 0.0069532 -3.31219 0.0218063 0.0224845 0.0381395
112 1 0.349992 0.0747366 0.0249983 0.0103918 -3.31589 0.0571475 0.0774628 0.0109741
187 1 0.324871 0.0998728 0.0249536 0.0111003 -3.32999 0.00949287 0.0396662 -0.000404057
106 1 0.324892 0.0749216 0.000454996 0.0283721 -3.30925 -0.0170684 0.0186557 -0.0722183
185 1 0.299465 0.0999286 0.000104849 0.0239439 -3.3212 0.0878429 -0.00442728 -0.0128539
191 1 0.374943 0.099772 0.0246902 0.0172071 -3.32551 -0.0490572 -0.00573509 0.0983908
116 1 0.399633 0.0749367 0.0245404 0.0354261 -3.3238 0.059241 0.00884461 0.105631
120 1 0.449664 0.0748111 0.0249886 0.0146443 -3.32039 -0.0164533 0.0393096 0.0316249
1714 1 0.424418 0.0750979 0.049926 0.0266785 -3.31999 0.127321 -0.0673887 -0.0442422
197 1 0.449649 0.0997493 0.000246381 0.0364824 -3.31804 0.0794646 0.0489176 -0.0462198
124 1 0.499962 0.0751433 0.0252426 0.0262621 -3.31741 0.0640662 -0.0449251 -0.0644275
203 1 0.525254 0.100119 0.0246338 0.0281959 -3.33191 -0.126312 -0.0232837 0.0421766
118 1 0.474928 0.0749016 0.000195001 0.0107448 -3.3169 0.0477488 0.0368207 -0.0142703
122 1 0.524699 0.0749537 -7.7906e-05 0.0102508 -3.31934 0.0527596 0.0329409 0.0504835
199 1 0.475128 0.099749 0.025033 0.0330674 -3.32572 -0.0995991 0.0767152 -0.0253339
1718 1 0.474636 0.0751709 0.0496965 0.0450344 -3.31889 0.0155355 -0.0935016 0.104979
1722 1 0.525351 0.0750924 0.0499337 0.0291538 -3.32218 -0.123293 -0.0586077 0.0108922
128 1 0.550151 0.0752028 0.0248396 0.0147717 -3.32567 0.0225219 -0.0810967 -0.064321
1726 1 0.574885 0.0749283 0.0498701 0.0157271 -3.31318 0.0687819 0.0159329 0.00282388
1729 1 0.600153 0.0501249 0.0499448 0.0157553 -3.31173 -0.0343942 -0.0903815 -0.00424593
132 1 0.599558 0.0752897 0.0248547 0.0352148 -3.32714 0.0581274 -0.0187673 0.0501572
211 1 0.624767 0.0998846 0.0250924 0.0222215 -3.31442 -0.0403739 0.0461585 -0.0736549
1730 1 0.624765 0.0746944 0.0501605 0.0400402 -3.31551 0.00453849 0.164709 -0.0937049
135 1 0.674684 0.0503088 0.0254054 0.0439632 -3.32253 0.0354854 -0.0416434 -0.165785
137 1 0.699623 0.0504021 9.08564e-05 0.0273892 -3.32272 -0.0208452 -0.0887975 -0.0187321
133 1 0.650024 0.0501201 0.000164417 0.0205976 -3.31534 0.0691295 0.00367038 -0.0369595
136 1 0.649734 0.0750538 0.0250251 0.0100427 -3.32129 0.00254487 -0.00757145 -0.0431442
140 1 0.700181 0.0753574 0.0250908 0.0294635 -3.31853 -0.0879222 -0.061374 -0.0447153
215 1 0.674911 0.0997784 0.0248124 0.0449923 -3.31787 0.0526073 0.105104 0.00216656
1737 1 0.699912 0.0503511 0.0496227 0.034869 -3.30944 0.0154328 0.0154318 0.113894
1734 1 0.674857 0.0754965 0.0500634 0.0343543 -3.31597 0.0367092 -0.101312 -0.0231711
139 1 0.724836 0.050468 0.0246982 0.019594 -3.30937 0.0307401 -0.0457689 -0.0109936
1741 1 0.749735 0.0501801 0.0495016 0.0451994 -3.31769 0.0239228 0.031521 0.0900435
141 1 0.750309 0.0502109 -0.00039609 0.0203452 -3.31153 -0.095941 -0.0380838 0.0449321
144 1 0.750085 0.0749591 0.024996 0.0193878 -3.32323 -0.0796085 0.108863 0.0264408
219 1 0.724855 0.0999588 0.0250327 0.013171 -3.31592 0.0352694 0.0388144 0.0336622
221 1 0.749639 0.0997572 0.000132633 0.0420817 -3.3307 0.145541 0.0784183 -0.0708188
143 1 0.774842 0.0502745 0.0246777 0.0200471 -3.31552 0.0950178 -0.0658297 0.108832
148 1 0.799917 0.0752633 0.0248603 0.0148702 -3.31887 0.070396 -0.0603697 0.10603
142 1 0.775161 0.0750739 0.00014447 0.0266038 -3.30672 -0.0599867 0.0525434 -0.0680764
1745 1 0.799989 0.0500777 0.0498805 0.0145496 -3.33218 -0.073615 0.0553092 -0.0424642
147 1 0.825017 0.0498856 0.0247235 0.0417438 -3.31373 -0.00889454 0.141747 0.117579
149 1 0.850346 0.0497407 0.000315615 0.0471445 -3.3198 -0.08992 0.0837664 -0.0760726
151 1 0.875143 0.0500314 0.0250066 0.0092785 -3.32025 0.0401839 0.0422839 0.00250695
152 1 0.849788 0.0754289 0.0251186 0.0407762 -3.31449 0.0187004 -0.135964 -0.00523535
150 1 0.874791 0.0750808 0.000302175 0.0272754 -3.32089 0.0650652 -0.0593066 -0.0109572
1829 1 0.849913 0.100056 0.0501563 0.0100173 -3.32645 -0.00526708 0.0461197 -0.0044634
155 1 0.924704 0.0497859 0.025044 0.0335373 -3.30755 0.14688 0.0906449 -0.000751541
156 1 0.900228 0.0749908 0.0252322 0.0232629 -3.32051 -0.0332058 0.0121538 -0.0715279
1833 1 0.900619 0.100021 0.0497093 0.0471052 -3.32169 -0.105618 -0.0417536 0.0424446
84 1 1.00002 0.0745636 0.0248766 0.0325716 -3.32047 -0.0605671 0.118407 0.0531922
160 1 0.950299 0.0746842 0.025123 0.0228311 -3.3294 -0.0797449 0.0711881 -0.0441302
1837 1 0.950524 0.0997712 0.0498035 0.0257169 -3.32245 -0.0947453 0.068482 0.0371676
1757 1 0.950188 0.0500189 0.0498442 0.0162095 -3.3187 -0.0716708 -0.0724495 0.0341509
237 1 0.949955 0.0999053 -1.28124e-05 0.0084781 -3.31369 -0.0246452 0.0396991 0.0448558
158 1 0.974785 0.0752372 2.14229e-05 0.034038 -3.32239 0.070815 -0.103928 -0.0239946
168 1 0.0500385 0.124975 0.0251008 0.0127491 -3.32584 -0.0747558 -0.012225 0.0391437
162 1 0.0251445 0.125125 0.000174385 0.0165752 -3.31449 0.0226345 -0.0868795 -0.00757278
164 1 1.32808e-05 0.124845 0.0246234 0.0574706 -3.31425 0.0634083 0.0407234 0.111702
1845 1 0.0500965 0.149623 0.0499779 0.0294365 -3.32092 -0.00894522 0.0356706 -0.0210344
165 1 0.0498937 0.0998882 0.000121689 0.0187561 -3.32843 0.0420647 -0.00356839 0.0284729
167 1 0.075189 0.100459 0.0253199 0.0487429 -3.32304 -0.0264263 -0.107785 -0.0658622
172 1 0.100222 0.125218 0.0253959 0.020174 -3.32065 -0.000170927 -0.095909 -0.072157
166 1 0.0748655 0.124915 -6.50813e-05 0.0270167 -3.31965 0.148116 -0.0536817 0.0918828
247 1 0.0751235 0.149885 0.0249317 0.0136832 -3.32151 -0.00756847 0.00974527 0.0485214
169 1 0.100559 0.100094 0.000563378 0.0503266 -3.32948 -0.115223 -0.0145753 -0.101623
173 1 0.149975 0.0999856 0.00028645 0.0128344 -3.31551 0.0332414 -0.0135014 -0.00656047
171 1 0.125405 0.0999235 0.0253489 0.020131 -3.31926 -0.123929 0.0623992 0.0446788
176 1 0.150276 0.125143 0.0253016 0.0124199 -3.32431 -0.0560939 0.00618483 -0.00413847
174 1 0.174878 0.124942 0.000332438 0.0210157 -3.32381 0.0311341 -0.0244963 -0.0912057
253 1 0.149918 0.150107 0.000171387 0.0194618 -3.3235 -0.0566529 -0.00334651 0.0227625
255 1 0.175357 0.150059 0.0247171 0.0507322 -3.30983 -0.0105624 -0.0733224 0.115766
1774 1 0.175472 0.125352 0.0501586 0.0347993 -3.32854 -0.118721 -0.0968008 0.00358879
170 1 0.125081 0.124983 3.63892e-05 0.0106983 -3.31507 0.0625349 0.0276023 0.0919147
180 1 0.200222 0.124774 0.0249303 0.0339231 -3.31438 -0.00249282 0.0820874 0.00829243
179 1 0.225006 0.0998765 0.025226 0.00967607 -3.31115 0.0615347 0.0169665 -0.0505027
177 1 0.200627 0.100029 0.000179737 0.0438345 -3.32151 -0.0993795 0.0329085 -0.0156186
184 1 0.249981 0.124984 0.0251786 0.0154322 -3.32061 -0.0304177 -0.00893898 0.00271497
1861 1 0.2503 0.149826 0.0500549 0.0218917 -3.31969 -0.06473 0.0183256 0.00233789
1785 1 0.300099 0.100062 0.05015 0.0122972 -3.32415 0.0259039 -0.064205 -0.0599047
188 1 0.299806 0.124994 0.0248801 0.00977756 -3.32172 0.0761105 0.000687804 0.0285398
186 1 0.324912 0.124871 -9.76209e-05 0.00821493 -3.32865 0.00173875 -0.0333173 0.0848513
192 1 0.350165 0.124815 0.0252458 0.0379585 -3.32235 -0.0950098 -0.0313653 -0.112612
267 1 0.325079 0.149944 0.0248549 0.00672037 -3.32259 -0.0241762 -0.0386217 0.027894
265 1 0.300003 0.150109 0.000160502 0.0218756 -3.32171 -0.0469809 -0.0409224 -0.0553759
1869 1 0.350208 0.14955 0.0495694 0.042602 -3.32473 -0.0376083 0.0853612 0.138346
196 1 0.399937 0.124459 0.0249283 0.0338427 -3.30818 -0.100862 0.0977975 -0.0407711
1790 1 0.375082 0.124281 0.049884 0.0511017 -3.30897 0.016316 0.11162 0.020416
273 1 0.400007 0.149654 -5.52842e-05 0.0104742 -3.31551 -0.0392615 0.0798458 0.00870284
271 1 0.375161 0.149775 0.0250172 0.0109297 -3.31544 -0.0173533 -0.0122895 -0.0600252
1873 1 0.399884 0.149708 0.0499343 0.00899759 -3.32108 -0.0344634 0.0464432 0.0273658
195 1 0.424917 0.10001 0.0251577 0.0252312 -3.31991 -0.0385098 -0.0639229 -0.0597795
200 1 0.449959 0.125207 0.0248959 0.0346892 -3.32244 -0.00642115 -0.105575 0.0682943
1794 1 0.424425 0.125008 0.0496826 0.0382928 -3.32112 0.136346 -0.00949227 0.122223
1877 1 0.44959 0.150121 0.0496748 0.0424016 -3.32638 0.00740648 -0.149162 0.131607
204 1 0.499706 0.124803 0.0248256 0.0143384 -3.32506 0.0520994 -0.00965451 0.0280127
279 1 0.474951 0.149867 0.0250101 0.0182835 -3.31372 -0.0230532 -0.00189514 0.0125364
1881 1 0.500298 0.149526 0.0499456 0.0384343 -3.3347 -0.035578 0.0459221 0.0317486
1802 1 0.525119 0.124508 0.0498829 0.026389 -3.32456 0.0118783 0.0392219 -0.00345057
207 1 0.574622 0.100607 0.0249433 0.0598223 -3.30259 0.0920819 -0.183154 -0.0538474
208 1 0.549839 0.125089 0.0247304 0.0148995 -3.30451 -0.0319271 0.041889 0.0440866
1885 1 0.549742 0.149891 0.0501093 0.011642 -3.33687 -0.0311872 -0.0124069 -0.02747
206 1 0.57516 0.12528 4.96306e-05 0.0230675 -3.31761 -0.0206513 -0.0515534 -0.124316
1806 1 0.574737 0.124867 0.0499513 0.0145685 -3.31619 -0.0973723 0.0294775 0.0729737
212 1 0.59971 0.124971 0.0250475 0.0260384 -3.31228 0.121251 0.0547682 -0.0198753
291 1 0.624703 0.150228 0.0251377 0.0209614 -3.32805 0.0217211 -0.0288111 -0.0824325
210 1 0.624782 0.125325 -9.74831e-06 0.0124629 -3.32132 -0.00163904 -0.0507972 0.0228941
1810 1 0.6252 0.125551 0.0497033 0.0770684 -3.31572 -0.050845 -0.12775 0.0480455
213 1 0.649837 0.100227 0.000135256 0.0134921 -3.32677 0.00448724 -0.0527338 -0.0929972
216 1 0.649842 0.124968 0.0247402 0.0258772 -3.31627 -0.0156788 0.0458473 0.0370224
220 1 0.700188 0.125139 0.0248766 0.019927 -3.32891 -0.030146 -0.0268829 0.0390489
214 1 0.675077 0.125278 0.000512789 0.0768087 -3.32471 -0.0316742 -0.0672417 -0.231559
1813 1 0.649697 0.100047 0.0494591 0.053506 -3.31999 0.0214638 0.058579 0.170901
1814 1 0.67469 0.125378 0.0499423 0.0226553 -3.32296 0.00652953 -0.115843 -0.0219785
224 1 0.75002 0.12496 0.0247946 0.0135002 -3.32097 -0.00393476 -0.0140918 0.0465686
1821 1 0.749868 0.1003 0.0499746 0.0115755 -3.31867 0.0419706 -0.0640357 -0.0340079
1901 1 0.749838 0.14982 0.0496774 0.0267541 -3.32476 0.0705204 0.0850645 0.0661347
1818 1 0.724918 0.125039 0.0499644 0.0126327 -3.31379 -0.0511581 0.0418037 -0.0564105
223 1 0.775257 0.100016 0.025158 0.0252304 -3.32521 -0.0802883 0.0371663 -0.0726759
228 1 0.799773 0.12531 0.0247989 0.0322111 -3.31994 0.0822272 -0.0723089 -0.00527292
1822 1 0.775034 0.125181 0.0498123 0.0192894 -3.32846 0.0467642 -0.0172636 0.0935149
231 1 0.874948 0.0998286 0.0250693 0.0166334 -3.32256 0.0201993 0.0621006 0.0127648
227 1 0.825039 0.100237 0.0249247 0.0108601 -3.32664 -0.0818486 0.0238015 -0.0147155
232 1 0.850088 0.12479 0.0250919 0.0179508 -3.32277 0.00711715 0.0196785 -0.0566252
230 1 0.874909 0.125155 -0.000129175 0.0254831 -3.31664 0.0302395 -0.088888 0.0654267
307 1 0.825339 0.149787 0.0251063 0.037844 -3.30803 -0.105346 0.0203133 -0.0701622
311 1 0.875128 0.149839 0.0251804 0.0132797 -3.32538 0.0463269 0.0229361 -0.0896541
1909 1 0.849893 0.14985 0.0496608 0.0432917 -3.31071 0.0287471 0.0377558 0.154933
235 1 0.925309 0.100006 0.0248301 0.0219932 -3.32615 0.0379436 -0.0272165 0.0155555
236 1 0.900003 0.124708 0.0250377 0.0208223 -3.32073 -0.032492 0.0776436 0.00595313
1834 1 0.925209 0.125106 0.050005 0.0185361 -3.31153 0.0168225 -0.0932768 -0.0399586
313 1 0.9002 0.149868 -0.000286209 0.0342445 -3.31407 -0.044706 0.0756428 0.156875
234 1 0.924777 0.124797 0.000305885 0.0365729 -3.32112 0.120357 0.0133873 -0.0379208
239 1 0.975092 0.100153 0.0249714 0.013724 -3.31796 -0.0141516 -0.0930118 -0.000740515
240 1 0.950394 0.125442 0.0253643 0.0802272 -3.32674 -0.0511054 -0.0860975 -0.0799566
238 1 0.974958 0.125225 0.000135317 0.0249196 -3.31271 -0.0353673 -0.0440353 -0.057002
243 1 0.0252005 0.150134 0.0248995 0.0193523 -3.32589 -0.0474281 -0.0802622 0.024391
248 1 0.0500993 0.1749 0.0252355 0.0193376 -3.31497 0.0144594 -0.0481739 -0.0799303
244 1 1.07434e-05 0.174928 0.024711 0.0207675 -3.31015 0.0404566 0.00841969 0.123036
1925 1 0.0498893 0.199512 0.049993 0.0234243 -3.31149 -0.0523956 0.051246 0.0647059
323 1 0.0249459 0.199701 0.0248379 0.0159127 -3.31217 -0.0362882 -0.0126686 0.056702
325 1 0.0500369 0.199929 5.24126e-05 0.012234 -3.31741 -0.0195944 -0.0879715 -0.0488341
252 1 0.0999753 0.174783 0.0249557 0.0163828 -3.32395 -0.0469703 0.042472 0.0553977
327 1 0.0748464 0.199517 0.0250458 0.0189086 -3.31542 0.0882223 0.0220618 0.00317018
246 1 0.0747897 0.17459 8.52254e-06 0.019879 -3.32024 0.0490515 0.0734285 -0.00849941
251 1 0.124827 0.149924 0.0253532 0.0307898 -3.32032 0.0887287 0.0561862 -0.0638976
256 1 0.150668 0.174937 0.0253176 0.0498935 -3.33083 -0.146728 0.00450583 -0.063659
254 1 0.175522 0.17496 0.000195154 0.0230932 -3.30586 -0.161552 0.00354836 -0.0308573
250 1 0.125141 0.175066 0.000256179 0.0287992 -3.32142 0.0951583 -0.0893159 -0.0342962
331 1 0.12524 0.19982 0.0247314 0.0406356 -3.32181 -0.0299213 -0.0551648 0.0894163
1933 1 0.150203 0.199741 0.0499725 0.020402 -3.32136 -0.000786985 0.00538168 0.0484279
259 1 0.224856 0.149964 0.0251278 0.0143424 -3.32922 0.0409093 -0.00861178 -0.0198935
260 1 0.199962 0.174936 0.0251472 0.0101694 -3.31931 0.109914 0.0527281 0.0263239
339 1 0.225056 0.199968 0.0250992 0.0169706 -3.31462 -0.103822 -0.0019331 0.0164828
337 1 0.200245 0.199822 -9.51946e-05 0.0222406 -3.31374 0.0158552 0.0927469 0.0656173
263 1 0.274918 0.149862 0.0247742 0.0160869 -3.31223 0.004889 0.0554526 0.0375721
264 1 0.249777 0.17477 0.0250351 0.0214217 -3.31872 0.0161517 0.00628581 -0.0380256
343 1 0.274469 0.199728 0.0250408 0.0420006 -3.31789 0.0804858 0.0966702 -0.0553465
1865 1 0.299814 0.15027 0.0497991 0.0193384 -3.31531 0.0172954 -0.0761834 0.0180663
268 1 0.299793 0.175099 0.0247642 0.0135272 -3.31644 0.00830106 -0.0520174 0.0169145
272 1 0.350118 0.17502 0.024985 0.0132128 -3.32125 0.0515047 -0.0141772 0.0486518
347 1 0.324877 0.199887 0.0248595 0.0103079 -3.3149 0.0702988 0.0314506 -0.0141197
1866 1 0.324933 0.174659 0.0496262 0.0304591 -3.32256 0.0769616 0.0534178 0.0713605
349 1 0.349904 0.199807 0.000228014 0.0269398 -3.31076 0.00965967 -0.00675985 -0.082276
266 1 0.325257 0.17482 8.92446e-05 0.0246042 -3.32284 -0.0610537 0.0451958 -0.0580002
276 1 0.399765 0.174816 0.0249109 0.0200085 -3.32434 0.104401 0.0440103 0.000258032
1870 1 0.375302 0.174857 0.0499826 0.0164656 -3.32127 -0.106735 0.00652866 -0.0417971
1953 1 0.400242 0.19999 0.0500093 0.0157586 -3.3081 -0.0574645 0.0167549 -0.0662335
353 1 0.400351 0.199816 -2.90606e-05 0.0136458 -3.31198 -0.0958393 -0.0436478 0.0126802
275 1 0.424635 0.14993 0.0247895 0.019725 -3.31408 0.0100953 0.00727796 0.0227213
280 1 0.449849 0.174855 0.0255655 0.0685274 -3.31193 -0.0275065 0.0309666 -0.212042
355 1 0.424953 0.199958 0.0250488 0.00939892 -3.31408 0.0166798 -0.050199 0.00260489
274 1 0.425324 0.175 -0.000122665 0.0414797 -3.32401 -0.0584665 -0.0771547 0.0936324
283 1 0.524847 0.149938 0.0247777 0.0185291 -3.32209 -0.0308212 -0.0230048 0.0337098
284 1 0.499634 0.17487 0.0249643 0.0111658 -3.30707 -0.0152679 0.00254714 0.0588477
363 1 0.524693 0.199528 0.0249554 0.0245877 -3.31585 0.0386068 0.106381 0.014544
1878 1 0.474728 0.174687 0.0498145 0.0166963 -3.31306 0.089756 0.043572 0.093178
278 1 0.474843 0.1751 0.000210027 0.0200404 -3.32771 -0.0631954 -0.0490937 -0.0456862
282 1 0.524664 0.174954 0.000457791 0.0643429 -3.3278 0.0536809 -0.0732858 -0.20569
359 1 0.474533 0.200218 0.0250368 0.0273907 -3.31797 0.0806911 -0.0722671 -0.00633224
1961 1 0.499766 0.199875 0.0498333 0.00820856 -3.31287 -0.0540912 -0.0618141 0.029476
1882 1 0.524743 0.174995 0.0500909 0.0241243 -3.31799 0.0336415 -0.11146 -0.0365471
287 1 0.57485 0.149972 0.0248159 0.0116948 -3.31401 0.0426897 0.0665721 0.0834581
285 1 0.550208 0.150008 6.76965e-05 0.0261119 -3.31246 -0.135143 0.00970513 -0.118973
288 1 0.550007 0.174846 0.024733 0.024579 -3.3123 -0.0103489 0.0160789 0.141295
1886 1 0.574862 0.174844 0.0500209 0.0204284 -3.32261 -0.0263748 0.0316071 -0.0430397
367 1 0.574912 0.200042 0.0253046 0.0325002 -3.31916 -0.0617175 0.019687 -0.108908
365 1 0.549964 0.199799 -0.000125378 0.0133439 -3.32408 0.0281948 0.0516107 0.0171852
292 1 0.599991 0.175576 0.0251141 0.0459893 -3.32247 -0.0865959 -0.157897 -0.0522258
289 1 0.600004 0.15037 0.000145076 0.0145387 -3.3146 -0.0124208 -0.00940868 -0.0343774
1889 1 0.599438 0.149753 0.0498562 0.0425932 -3.30972 0.0575531 0.0790658 -0.0265657
1890 1 0.624844 0.174929 0.0498417 0.0184705 -3.31845 -0.00194522 0.0217238 0.0151115
295 1 0.674817 0.15012 0.0249236 0.00667894 -3.31562 -0.0132538 -0.00626329 -0.0502636
296 1 0.649714 0.17516 0.0247545 0.00898436 -3.30838 -0.0377687 -0.0297719 0.0387535
293 1 0.649917 0.150236 -0.00037225 0.0279987 -3.3249 -0.0181947 -0.0264221 0.0872686
300 1 0.699949 0.175094 0.0248041 0.00905124 -3.31331 -0.053115 -0.000956262 0.00053819
375 1 0.674752 0.199571 0.0247416 0.0522117 -3.33104 0.0183834 0.176661 0.0597164
294 1 0.674602 0.175013 -7.59714e-05 0.0247427 -3.31809 0.0754532 0.0655493 -0.0662642
1894 1 0.674504 0.175046 0.0497108 0.0163122 -3.32202 0.0703847 0.0638994 0.0624759
1897 1 0.699818 0.149932 0.0496465 0.0138188 -3.32742 0.0498592 0.0302964 0.0749031
1893 1 0.650031 0.150218 0.0496912 0.0210525 -3.30579 -0.0491511 -0.00190612 0.0753445
1977 1 0.700042 0.19989 0.0499393 0.0157558 -3.32774 -0.111953 0.0341911 0.0241172
299 1 0.725077 0.150284 0.0246186 0.0285546 -3.31727 -0.0358396 -0.0931451 0.0702511
304 1 0.749787 0.175195 0.0251236 0.0172105 -3.31214 0.0746143 0.00887875 -0.0373388
1898 1 0.724718 0.174796 0.0495153 0.0320196 -3.31494 0.0383008 0.00757839 0.155703
305 1 0.800399 0.149882 -0.000142109 0.0291345 -3.31754 -0.0976857 0.0718669 0.0691028
303 1 0.774801 0.1502 0.0248096 0.0252997 -3.31744 0.093029 0.0149654 0.077782
308 1 0.800462 0.174935 0.025261 0.0273334 -3.33055 -0.079247 0.0563442 -0.0230592
302 1 0.775231 0.174986 0.000249116 0.0202654 -3.33208 0.0295748 0.0529517 -0.0318433
383 1 0.774845 0.200024 0.025279 0.0165319 -3.33631 0.08304 0.00326752 -0.0279631
1905 1 0.800044 0.150178 0.0500366 0.0151016 -3.3264 -0.0179979 -0.014996 0.00195391
306 1 0.824999 0.175168 0.000239919 0.0203015 -3.31495 -0.0266355 -0.038524 -0.0692745
312 1 0.849943 0.174814 0.0247038 0.0527972 -3.32258 0.0463086 0.0286481 0.153981
391 1 0.875521 0.199556 0.0255429 0.0657213 -3.31647 -0.151675 0.0928291 -0.13607
389 1 0.850269 0.199853 0.000229246 0.0129162 -3.32192 0.0612385 0.072157 -0.0103427
315 1 0.924985 0.1501 0.0248599 0.0291683 -3.32826 -0.0377691 -0.047819 0.0577276
316 1 0.900149 0.17509 0.0253271 0.0193489 -3.32844 0.069222 -0.112517 -0.0644266
1993 1 0.900015 0.199882 0.0503323 0.0143075 -3.30685 0.101072 -0.0726296 0.00832975
314 1 0.925229 0.175138 -0.000171919 0.0219811 -3.3215 -0.0728605 -0.0357976 0.0323623
319 1 0.975571 0.149994 0.0250369 0.0431816 -3.31933 -0.169111 0.0221006 -0.0206082
320 1 0.949751 0.174849 0.0248176 0.043747 -3.32363 0.0948165 -0.00660687 0.0927139
399 1 0.97514 0.199838 0.025119 0.0115028 -3.32719 0.00461236 -0.0286978 -0.00326691
1918 1 0.974739 0.174363 0.0501985 0.0777454 -3.32428 0.0442715 0.179391 -0.0987717
318 1 0.975206 0.175052 0.000152628 0.0264766 -3.33059 -0.0754204 -0.0657803 -0.154647
328 1 0.0498371 0.224388 0.025546 0.0620555 -3.31647 0.0813784 0.12799 -0.070141
324 1 9.84192e-05 0.224744 0.0251302 0.011849 -3.32326 0.0299445 -0.017271 -0.0371305
405 1 0.0500859 0.249677 0.000228925 0.0143396 -3.31461 0.0355164 0.0697796 -0.0597692
322 1 0.0254762 0.224969 0.000339614 0.0462936 -3.3153 -0.0878394 -0.0628935 -0.090741
401 1 2.49904e-05 0.249477 0.000581282 0.0706366 -3.32017 -0.00296818 0.0760642 -0.173329
332 1 0.0997228 0.224307 0.025554 0.0881927 -3.32261 0.0518475 0.0903986 -0.207225
326 1 0.0749366 0.224563 0.000275832 0.0139293 -3.33426 0.0863001 0.0679296 0.00502131
407 1 0.0748088 0.249868 0.0250887 0.0284373 -3.32469 0.048664 -0.0816392 -0.00770286
409 1 0.100426 0.249959 0.000344151 0.0332663 -3.31445 -0.0946039 -0.093848 0.0693609
2009 1 0.0999183 0.249562 0.0497744 0.0241717 -3.32503 -0.0355254 0.0575591 0.0881862
1926 1 0.0750779 0.224512 0.050061 0.0225514 -3.30627 -0.129922 0.0548338 0.054063
335 1 0.175368 0.200143 0.0251923 0.018965 -3.31142 -0.000745032 -0.0630713 -0.029911
336 1 0.150206 0.224588 0.0251935 0.0168901 -3.3157 0.0843776 0.0619809 -0.0996399
330 1 0.124901 0.22459 0.000131036 0.0221114 -3.32291 0.0732266 -0.00282788 0.0668252
415 1 0.175064 0.249812 0.0251248 0.00812878 -3.31682 -0.0595373 -0.0222653 -0.0300851
411 1 0.125145 0.249407 0.025206 0.0296939 -3.31812 0.0136766 0.0955089 -0.0466761
1930 1 0.125338 0.224639 0.0497382 0.0427519 -3.31317 -0.0606031 0.0389902 0.135619