ITEM: TIMESTEP
1250
ITEM: NUMBER OF ATOMS
32000
ITEM: BOX BOUNDS pp pp pp
5.0257839477212551e-01 8.0497421605222726e+01
-1.8232133262135619e-01 8.1182321332616198e+01
-1.8328572642536756e-01 8.1183285726420138e+01
ITEM: ATOMS id type xs ys zs c_csym c_peratom fx fy fz
8 1 0.0502642 0.0247439 0.0250932 0.0336363 -3.3513 -0.0575305 0.0855367 -0.0834941
83 1 0.0253145 0.049578 0.0249139 0.0591574 -3.36154 -0.102036 0.0299301 0.0502113
1602 1 0.0250629 0.0249367 0.0498798 0.0125955 -3.36101 -0.077072 0.0562327 0.0322875
1605 1 0.0499755 0.000524581 0.0498054 0.0770178 -3.36023 0.0403643 -0.195989 0.118766
1685 1 0.049973 0.0497355 0.0499443 0.0181053 -3.35456 0.0101802 0.0781799 -0.0100761
81 1 -0.000269919 0.0501049 0.000184168 0.035554 -3.36301 2.62736e-05 -0.0220768 -0.068948
3 1 0.0247968 0.000104725 0.0248207 0.0233618 -3.35445 0.0540516 -0.0172923 -0.00142708
1 1 0.000148992 0.000195214 -0.000441223 0.0198154 -3.36172 0.00678713 -0.0566221 0.0370898
12 1 0.0999259 0.0249734 0.0252238 0.0219007 -3.35469 0.0309057 -0.00618441 -0.0434426
87 1 0.0750321 0.0500016 0.0247883 0.0229889 -3.35612 -0.0634491 -0.0483975 0.0270878
1606 1 0.0748962 0.0249679 0.0502768 0.025999 -3.35576 0.050161 -0.0100022 -0.0351294
1689 1 0.100107 0.0496001 0.0496411 0.0383226 -3.35358 0.0160624 0.0521858 0.109734
1609 1 0.0998071 2.26717e-05 0.0500089 0.0172167 -3.35447 0.0628828 0.0125264 0.0130596
6 1 0.0750767 0.0247058 0.000291931 0.0350631 -3.35709 -0.0231459 0.0894069 -0.0975241
9 1 0.100085 -0.000218587 0.000156777 0.0239485 -3.35125 -0.00143895 0.047218 -0.0606651
13 1 0.14983 0.000369984 0.000234828 0.0175041 -3.36201 0.0619109 -0.044767 -0.0701104
16 1 0.149731 0.0249659 0.0253032 0.025521 -3.35369 0.0588038 0.0752238 -0.0383905
91 1 0.124993 0.0503721 0.0247861 0.0466061 -3.35842 -0.00789885 -0.114221 0.0139705
1610 1 0.125373 0.0249487 0.0498641 0.0305963 -3.36075 -0.0664599 0.0126589 0.0761876
1693 1 0.150198 0.0504166 0.0501068 0.0382025 -3.3529 -0.0114625 -0.165958 -0.016396
11 1 0.125044 -7.5278e-06 0.0250883 0.0126091 -3.35344 -0.0459216 -0.0233774 0.0162682
93 1 0.149828 0.0499561 0.000165699 0.0134292 -3.36096 -0.0127952 -0.000404894 -0.0502803
15 1 0.174924 0.00028887 0.025309 0.0176476 -3.36034 0.0368439 -0.0835085 -0.0484141
20 1 0.199737 0.0251922 0.0250573 0.0187943 -3.35737 0.118195 -0.0360465 0.0195717
95 1 0.174854 0.0500805 0.0253026 0.0165308 -3.35354 0.0525943 -0.0319072 -0.00709472
1614 1 0.175175 0.0248586 0.0501158 0.0102248 -3.35208 -0.0624268 0.0509776 -0.0120216
1617 1 0.200346 -9.91858e-05 0.0500301 0.0136873 -3.35961 -0.03247 -0.0298885 -0.0266184
1697 1 0.200199 0.0500542 0.0501326 0.0122517 -3.36053 0.010606 -0.021641 -0.0686402
24 1 0.249922 0.0253736 0.0246663 0.033108 -3.36468 0.0105225 -0.0971507 0.0708048
99 1 0.225262 0.0502611 0.0248825 0.024353 -3.35344 -0.0690846 -0.0940675 0.0759335
1618 1 0.224938 0.0247915 0.0499 0.029116 -3.3668 0.102046 0.0403981 -0.0395877
1621 1 0.250529 5.09357e-05 0.049997 0.0287813 -3.36618 -0.124039 0.0227541 -0.0412902
1701 1 0.250504 0.0500827 0.0499763 0.0295469 -3.35597 -0.0907726 -0.0526684 0.0213761
22 1 0.27502 0.0251949 -5.83179e-05 0.00608531 -3.36172 0.0159314 -0.0189492 -0.0271616
23 1 0.275046 0.000283378 0.024887 0.0215446 -3.35933 -0.0235242 -0.0225963 0.0359485
28 1 0.299919 0.0249006 0.0247416 0.0215849 -3.36347 0.0685999 0.00721921 0.0304512
103 1 0.275033 0.0498635 0.0249224 0.022757 -3.35551 0.0333933 0.0636351 -0.0130278
1622 1 0.27516 0.0252892 0.050211 0.0310191 -3.35066 0.0161304 -0.0352789 -0.0833244
1705 1 0.300491 0.049907 0.0498342 0.0319246 -3.35922 -0.0672756 0.0530416 0.0415922
1625 1 0.300089 0.000143806 0.0499887 0.00960578 -3.35703 -0.0195849 0.00302336 0.00561526
26 1 0.325049 0.0248945 -0.000130815 0.0115513 -3.35755 -0.0384117 -0.0206505 0.00710463
32 1 0.349484 0.0249959 0.0246932 0.0629198 -3.34851 0.114096 0.0444609 0.0985648
107 1 0.325053 0.0500989 0.0249341 0.00941205 -3.36395 0.0236914 -0.0159313 0.0345687
1626 1 0.325039 0.0247282 0.0498696 0.0233327 -3.35366 0.00289504 0.0909603 -0.00610692
1709 1 0.350158 0.0498548 0.050353 0.0291933 -3.35958 -0.0925201 0.0102821 -0.0803358
36 1 0.399783 0.0251005 0.0253252 0.0447412 -3.35344 0.0570085 -0.125571 -0.0976434
111 1 0.374764 0.0498152 0.0253765 0.0210915 -3.35114 0.0690868 -0.00120122 -0.0684961
1630 1 0.374977 0.0249816 0.0497657 0.0183824 -3.35081 -0.0135096 -0.0835245 0.0637109
1713 1 0.400319 0.049405 0.0502077 0.0388269 -3.35717 -0.00732947 0.0959365 0.0272114
31 1 0.374617 7.36556e-05 0.0251147 0.0293645 -3.35144 0.0419556 -0.0546989 -0.0342494
30 1 0.374597 0.0249617 0.000258612 0.0342759 -3.35425 0.139626 -0.0479692 -0.00933865
40 1 0.449864 0.0246975 0.0251458 0.0177943 -3.35732 0.0205949 0.0415625 -0.0337308
115 1 0.425021 0.0495788 0.0248191 0.0267716 -3.35573 0.0721629 0.0295361 0.0963644
1634 1 0.42513 0.0244865 0.0500679 0.0191496 -3.36629 0.0238108 0.0279555 0.0222102
1717 1 0.450245 0.0499451 0.0501747 0.0148357 -3.36285 -0.0858721 -0.0474274 -0.0116187
35 1 0.425017 -0.000211695 0.024865 0.00910273 -3.36233 -0.0187492 0.0192374 0.00994611
38 1 0.474949 0.0248593 0.000138908 0.0128259 -3.36659 0.0192172 0.0612079 -0.1023
44 1 0.500059 0.0250653 0.0250391 0.00912894 -3.35806 0.0107013 -0.0522522 0.0312232
119 1 0.47472 0.0497791 0.0251046 0.0263209 -3.36026 0.0917637 0.035797 -0.0106357
123 1 0.525166 0.0497999 0.0253213 0.0334642 -3.34281 -0.126656 0.0592693 -0.0350204
1638 1 0.475138 0.0247721 0.0500166 0.00979907 -3.36122 0.0120199 0.0312401 0.0224258
1642 1 0.52492 0.0247465 0.0502619 0.0268458 -3.35335 -0.0382174 0.0419614 -0.0405815
1721 1 0.500164 0.0500659 0.0500142 0.0151164 -3.36737 -0.0353091 -0.0159755 -0.0150652
42 1 0.52495 0.0254117 0.000218797 0.0301262 -3.36013 -0.0390687 -0.144385 -0.0933141
47 1 0.574798 0.000458489 0.0249918 0.0369607 -3.36338 0.0222485 -0.0716424 0.00371882
48 1 0.549597 0.0248966 0.0254214 0.0488806 -3.35266 0.122082 -0.00524754 -0.0757716
125 1 0.549893 0.0500328 0.0002956 0.0243014 -3.35229 0.0228009 0.0116329 -0.0948224
127 1 0.574912 0.049994 0.0248978 0.00839833 -3.36768 0.0290398 -0.016385 0.0834503
1646 1 0.574999 0.0247753 0.0501067 0.027214 -3.37217 0.00877257 0.103579 0.00197437
1725 1 0.549841 0.050172 0.0497924 0.0387136 -3.35393 0.0662826 -0.0474718 0.119992
50 1 0.625121 0.0249921 7.46927e-05 0.00955997 -3.34978 -0.00125092 -0.00477244 -0.0668243
52 1 0.600239 0.025012 0.0248922 0.0195177 -3.34929 -0.105723 0.0286011 0.0803747
131 1 0.624931 0.0497176 0.0249344 0.012921 -3.35638 0.048912 0.0824685 -0.0415402
1650 1 0.625069 0.0251057 0.0496617 0.0218503 -3.35088 0.00800861 -0.00941628 0.0858618
1729 1 0.600099 0.0500483 0.0502164 0.02714 -3.3536 -0.121394 -0.0123301 -0.113194
56 1 0.650345 0.0247009 0.0251218 0.0321332 -3.35812 0.00136061 0.0653373 -0.061268
135 1 0.675205 0.0496718 0.0248624 0.0104399 -3.36065 -0.0455899 -0.00941175 -0.038123
1654 1 0.67537 0.0250675 0.0499623 0.0294625 -3.35867 -0.0828043 -0.0840488 0.0160769
1733 1 0.650028 0.050103 0.0498527 0.0178564 -3.36279 -0.0238999 -0.073071 0.0539517
53 1 0.649968 9.38387e-06 -0.000167191 0.0216856 -3.35789 0.0274827 -0.0781418 0.0405641
1653 1 0.649884 0.000142442 0.0500954 0.0136419 -3.36226 0.0538446 -0.0760668 0.00417141
133 1 0.65003 0.0496813 -0.000112873 0.0106998 -3.36125 0.0393815 0.0198267 0.0141429
58 1 0.725328 0.0251843 -1.95434e-05 0.0578525 -3.36042 -0.0765783 -0.12137 -0.0543195
60 1 0.699871 0.0246111 0.0245282 0.0436198 -3.35965 0.0444783 -0.0147611 0.049586
139 1 0.724972 0.0495259 0.0250465 0.0269715 -3.3522 0.050551 0.0668293 -0.00154968
1658 1 0.725118 0.0246894 0.0497523 0.00766299 -3.3594 -0.0301642 0.0328768 0.0573643
1737 1 0.700202 0.0495949 0.0498019 0.0199518 -3.35503 -0.00151404 0.0400536 0.0585168
59 1 0.725052 -0.000198384 0.02485 0.00538173 -3.35756 -0.0700994 -0.0152786 -0.0175932
64 1 0.749891 0.024767 0.0248124 0.0156871 -3.35428 0.103339 0.0021001 0.000533426
143 1 0.775081 0.0497368 0.0250153 0.0245073 -3.35947 0.0573374 -0.000768818 -0.060668
1662 1 0.775081 0.0251765 0.0498382 0.0187772 -3.36298 0.0135159 -0.0845162 -0.00335049
1741 1 0.750012 0.0500347 0.0497306 0.0185332 -3.35698 -0.065024 -0.0312674 0.0460234
63 1 0.775106 -8.95524e-05 0.0249201 0.0141446 -3.365 -0.0188944 0.0927553 -0.0310098
61 1 0.749803 -0.000375882 -0.000238048 0.0225295 -3.36082 0.0774396 0.0585968 0.022551
68 1 0.800502 0.0253053 0.0251818 0.0761528 -3.36274 -0.142342 -0.0892054 -0.0977089
147 1 0.824621 0.0501807 0.0246212 0.0564911 -3.35106 0.110233 -0.0871041 0.0619801
1666 1 0.82476 0.0251615 0.0504337 0.0393888 -3.35388 0.0972062 -0.0547744 -0.109731
1745 1 0.800203 0.0499872 0.0500536 0.0275682 -3.34576 -0.0997052 -0.00728948 0.00466191
1665 1 0.799948 3.25767e-05 0.0500446 0.00997089 -3.36637 0.00484273 -0.0175749 -0.0102274
69 1 0.850381 -0.000258298 5.63552e-05 0.0277354 -3.35758 -0.00381855 0.0442649 -0.0098805
71 1 0.875019 0.000284966 0.0252636 0.0329692 -3.36527 -0.0524638 -0.0658631 -0.028539
72 1 0.849788 0.0251032 0.0248889 0.0114706 -3.37043 0.0562041 0.0288319 0.0280988
149 1 0.849829 0.0501433 -0.000177894 0.0145502 -3.3532 0.0670281 -0.0587871 0.046767
151 1 0.874894 0.0501566 0.0246983 0.014867 -3.36535 -6.81584e-05 -0.0483552 0.0675277
1670 1 0.874857 0.02534 0.0500775 0.0217382 -3.36001 -0.00363382 -0.0741049 -0.0395455
1749 1 0.849853 0.050185 0.0498914 0.0122816 -3.37038 0.0148691 -0.0661939 0.0041872
1669 1 0.849789 4.85587e-05 0.0500509 0.0174654 -3.36432 0.079609 0.0146441 -0.00781573
70 1 0.87532 0.0250369 -0.000275868 0.0429604 -3.36477 -0.102497 -0.0267047 0.0662164
74 1 0.924854 0.0246562 -0.000299101 0.0553782 -3.34886 -0.0422055 0.119353 0.107644
76 1 0.900207 0.0250313 0.0251368 0.0195748 -3.36346 -0.0285393 0.0204464 -0.0473468
155 1 0.924942 0.0501038 0.0251002 0.0133281 -3.35959 0.0108587 -0.0200577 -0.0197492
1674 1 0.925193 0.0251271 0.0499986 0.0111852 -3.36045 -0.0113579 -0.0194136 -0.0310733
1753 1 0.899902 0.0498666 0.049987 0.0173996 -3.35273 0.0131754 0.0623394 -0.00639157
1673 1 0.900124 0.00015039 0.0499354 0.00925933 -3.35914 -0.00260214 0.00275574 -0.00211476
153 1 0.899875 0.0502129 -7.24462e-05 0.0107318 -3.35761 0.0393712 -0.0404686 0.00826308
73 1 0.899883 -6.05612e-05 0.000348389 0.0439515 -3.35431 -0.0217273 0.0324259 -0.139723
4 1 0.999699 0.0249197 0.0248181 0.0216169 -3.3585 0.0950037 0.0690576 0.00164286
1681 1 0.999587 0.0501513 0.0499628 0.0300433 -3.36085 0.122986 -0.030304 -0.00130987
78 1 0.974918 0.025073 -0.000494348 0.0419953 -3.35648 0.0283494 0.0627066 0.115479
80 1 0.950008 0.0250472 0.024545 0.0454012 -3.36037 -0.0256513 0.00681335 0.114831
159 1 0.974889 0.0499475 0.0254724 0.0636903 -3.36106 -0.0355585 0.06189 -0.162655
1678 1 0.974789 0.0247044 0.0497929 0.048427 -3.35646 0.0062233 0.107034 0.0447517
1757 1 0.949886 0.0501581 0.0502445 0.0302675 -3.35845 0.00686707 0.0297341 -0.105346
79 1 0.975331 0.000174357 0.0249026 0.0244838 -3.35281 -0.114865 -0.059044 -0.046238
157 1 0.949651 0.0501977 0.000246084 0.0525003 -3.36049 0.155185 0.00921379 -0.0807682
88 1 0.0499514 0.0749626 0.0245688 0.0352972 -3.35875 0.00710037 0.0332517 0.153988
163 1 0.0246254 0.0999492 0.0248455 0.0346758 -3.35588 0.143249 0.0757371 -0.0104163
1682 1 0.0249197 0.075198 0.049775 0.0182494 -3.35425 0.0729964 -0.109842 0.0331284
1765 1 0.049869 0.0998183 0.0497359 0.0311134 -3.37005 0.088644 0.0250661 0.0316137
92 1 0.0998156 0.0747566 0.02505 0.0203943 -3.35224 0.00196671 0.0613114 -0.0426007
167 1 0.0751137 0.100173 0.0252226 0.0346632 -3.3551 -0.0862995 -0.0792226 -0.00883919
1686 1 0.0750997 0.0743421 0.0498935 0.0718557 -3.36285 -0.0595006 0.178221 0.00451524
1769 1 0.0998287 0.100059 0.0501515 0.0217291 -3.35472 0.0621251 -0.0160196 -0.0481999
169 1 0.100096 0.0999204 0.000108691 0.01246 -3.35711 -0.00270533 0.0613276 -0.0319644
96 1 0.15042 0.0748701 0.025098 0.0506456 -3.35137 -0.122995 0.0923017 -0.0509662
171 1 0.124543 0.0998205 0.0249815 0.0478896 -3.35988 0.117932 0.0400919 -0.0148984
173 1 0.149898 0.0999522 -0.000111613 0.015427 -3.36759 0.0213399 0.0353219 0.0205345
1690 1 0.124912 0.0748601 0.0497475 0.0172357 -3.35573 0.00185567 0.0631507 0.0435966
1773 1 0.149987 0.0998511 0.0496448 0.0198617 -3.36355 0.0100092 -0.0141481 0.0574545
100 1 0.200107 0.0747227 0.0251275 0.0258357 -3.36142 0.00680293 0.0808721 -0.0282142
175 1 0.175268 0.0997964 0.0243856 0.0705253 -3.35681 -0.0369781 0.00560987 0.101125
177 1 0.200295 0.100148 -0.000281507 0.0299458 -3.36032 -0.0795433 -0.0664303 0.0634028
1694 1 0.17515 0.0751733 0.0503025 0.0455338 -3.34714 0.0500697 -0.00726239 -0.0710406
1777 1 0.200158 0.0999693 0.049573 0.0297562 -3.36761 0.0299147 -0.00559262 0.0750633
104 1 0.249943 0.0748175 0.0249236 0.0246866 -3.35302 0.0761479 0.0650985 0.00479163
179 1 0.225279 0.0998544 0.025248 0.0244163 -3.36364 -0.0572776 0.00937366 -0.055669
1698 1 0.225399 0.0747543 0.050168 0.0285143 -3.3571 -0.0772481 0.0585169 -0.0150534
1781 1 0.250256 0.0999267 0.0501298 0.00944055 -3.35423 -0.040226 0.0460326 -0.0439939
108 1 0.300212 0.0748144 0.0251233 0.022332 -3.3536 0.00913095 0.0414685 -0.014968
183 1 0.274934 0.0998688 0.0250601 0.0220703 -3.36454 0.0521109 0.0899262 -0.0110925
1702 1 0.275176 0.0749588 0.0500993 0.00779986 -3.35489 0.0276502 -0.0330596 -0.0439954
1785 1 0.2998 0.0997615 0.0496463 0.070351 -3.36329 0.0694947 0.085848 0.104648
106 1 0.325121 0.0751919 8.4985e-05 0.0191511 -3.355 0.0184812 -0.0354349 0.0163543
112 1 0.350316 0.0747651 0.0252349 0.0136311 -3.35644 -0.0970519 0.0325123 -0.017057
187 1 0.325456 0.0998972 0.0251307 0.0149383 -3.36173 -0.0469981 -0.0173489 -0.0212511
1706 1 0.325187 0.0752824 0.0503048 0.0317069 -3.35957 0.00358511 -0.0758951 -0.0532462
1789 1 0.350312 0.0998667 0.0500916 0.00914999 -3.35745 -0.0353053 0.0389177 0.0240225
116 1 0.400289 0.0745018 0.0255765 0.0464382 -3.36797 -0.0907936 0.0551765 -0.111795
191 1 0.374834 0.099878 0.025206 0.0276061 -3.35796 0.110778 -0.0449841 -0.0146305
1710 1 0.375123 0.0745271 0.0501525 0.013447 -3.358 0.0652211 0.0622908 0.0181905
1793 1 0.400149 0.0998254 0.0500308 0.00920896 -3.35992 -0.0537711 -0.0563711 0.0125762
120 1 0.450038 0.074772 0.0251536 0.00665769 -3.36262 -0.036138 -0.00850778 -0.00946191
195 1 0.424936 0.0996069 0.0254243 0.0225293 -3.35451 -0.0101545 -0.0164145 -0.112236
1714 1 0.425071 0.0745421 0.0501862 0.0164227 -3.36232 0.00575017 0.0133349 0.0180814
1797 1 0.449776 0.100078 0.0502241 0.0259544 -3.35415 0.0396435 -0.0843946 -0.0230039
197 1 0.449949 0.0995395 0.000221491 0.0124055 -3.35992 -0.00276602 0.0328122 0.00313417
124 1 0.499979 0.0752025 0.02498 0.0256633 -3.35895 -0.0287702 -0.117133 0.0334704
199 1 0.474805 0.099796 0.0252393 0.0138388 -3.36203 0.0339499 0.0343703 -0.0472323
203 1 0.524402 0.0999239 0.0247105 0.0647854 -3.35843 0.154536 0.0393077 0.0813318
1718 1 0.47504 0.0750223 0.0501205 0.0112318 -3.35909 -0.0192726 -0.0468539 -0.0137819
1722 1 0.525276 0.0750984 0.0499116 0.0398789 -3.3597 -0.0996526 -0.0293734 0.0661091
1801 1 0.499864 0.09964 0.0502845 0.0247208 -3.35388 0.0490664 0.0435492 -0.00101213
118 1 0.475178 0.0748121 6.54768e-05 0.0179813 -3.35169 -0.0230529 0.0128299 0.0454527
126 1 0.575352 0.0749649 -0.000306659 0.0519664 -3.35561 -0.147621 -0.00166139 0.107213
128 1 0.549558 0.0748547 0.0247346 0.0449425 -3.35379 0.147911 0.10343 0.0197163
205 1 0.550246 0.0999995 1.1064e-05 0.0246829 -3.36274 -0.0626114 -0.0421685 -0.0202112
207 1 0.574629 0.100049 0.0251357 0.0260563 -3.35979 0.0519032 -0.0624733 -0.0643475
1726 1 0.57482 0.0747511 0.0498244 0.0183343 -3.36614 0.00587034 0.00401455 0.0265117
1805 1 0.549878 0.100043 0.0499222 0.0114472 -3.35896 -0.0465719 -0.0299923 0.0199389
130 1 0.625307 0.0747462 -0.000360596 0.0339104 -3.36479 -0.0695564 0.00894309 0.0883934
132 1 0.600012 0.0749346 0.0247668 0.0159359 -3.36833 -0.00419497 0.00706672 0.0119781
211 1 0.624774 0.100235 0.0247969 0.0319217 -3.36408 0.0517175 -0.115804 0.0406587
1730 1 0.624897 0.0747898 0.0495941 0.0327941 -3.35899 -0.0131054 0.0652009 0.0956289
1809 1 0.59959 0.0997258 0.0499361 0.0110998 -3.35768 0.0844137 0.0111735 -0.00423136
209 1 0.599774 0.100126 3.87206e-05 0.0304512 -3.35075 0.0393466 -0.0525263 -0.0346841
134 1 0.674948 0.0744823 -2.70906e-05 0.037837 -3.3632 0.0124399 0.114474 0.00218112
136 1 0.650055 0.0748165 0.0248816 0.00868928 -3.36407 -0.0307111 0.0402142 -0.0471218
215 1 0.675096 0.0997966 0.0250309 0.00920446 -3.36349 -0.0542913 -0.00891592 -0.0378311
1734 1 0.675201 0.0745627 0.0497656 0.0288225 -3.35151 -0.059577 0.0530833 0.0430733
1813 1 0.649812 0.0996232 0.0499987 0.0177083 -3.36378 -0.00594721 0.053648 -0.0416967
140 1 0.700295 0.0745913 0.0249033 0.0248634 -3.35157 -0.0900588 0.0623963 0.0137725
219 1 0.724884 0.0997633 0.0251325 0.0115872 -3.37171 0.0306718 0.0493908 -0.00735925
1738 1 0.724677 0.0750744 0.0500147 0.0357437 -3.35943 0.0741337 -0.0698922 -0.00432825
1817 1 0.699447 0.099779 0.0502141 0.0474499 -3.35265 0.106095 0.0237381 -0.0642814
217 1 0.699867 0.0998693 0.000177403 0.0229391 -3.36936 0.0728449 -0.00269578 0.0140902
142 1 0.775123 0.0749147 5.73365e-05 0.0117099 -3.35773 0.0375467 -0.0292114 -0.00282346
144 1 0.750257 0.0746859 0.0251057 0.0177023 -3.36104 -0.0825094 0.0516978 -9.36848e-06
223 1 0.774764 0.099927 0.0248827 0.0213196 -3.35054 0.0485281 -0.049081 0.0559942
1742 1 0.775226 0.0748895 0.0498741 0.0183196 -3.3551 -0.0254546 0.0156747 0.0355365
1821 1 0.750249 0.0997526 0.0503177 0.0444166 -3.36061 -0.12028 0.0307519 -0.112062
146 1 0.825026 0.0749342 0.000317446 0.0411759 -3.35868 -0.0525784 0.0700219 -0.14988
148 1 0.799823 0.0748471 0.024969 0.0167223 -3.3594 -0.00926691 0.000235811 -0.053133
227 1 0.824871 0.0997327 0.0250283 0.0168505 -3.35059 -0.00255754 0.097137 -0.0765552
1746 1 0.82487 0.0748014 0.0498995 0.00722219 -3.34751 -0.00610979 -0.00653909 0.0496356
1825 1 0.800234 0.0998723 0.0498568 0.0255265 -3.35479 -0.121031 -0.0451988 0.0571096
150 1 0.874961 0.0751331 5.78981e-05 0.0120631 -3.36014 -0.0371447 -0.0161326 -0.0532307
152 1 0.849817 0.0750129 0.0247574 0.0176267 -3.34888 0.0776065 -0.0399779 0.044177
231 1 0.874759 0.100149 0.0248516 0.0175946 -3.34904 0.00813451 -0.0363202 0.108939
1750 1 0.875078 0.0750138 0.0501014 0.028611 -3.35462 -0.0424835 -0.028616 -0.110849
1829 1 0.849554 0.0993945 0.049633 0.0908137 -3.36067 0.104529 0.195918 0.110381
154 1 0.925084 0.0748638 -6.78573e-05 0.0234895 -3.35918 -0.0294063 0.108084 -0.0353318
156 1 0.899971 0.0750912 0.0249732 0.0109174 -3.35606 -0.0251336 0.00365339 -0.00414075
233 1 0.899814 0.100107 6.91961e-05 0.0137067 -3.35393 0.0542175 -0.0106419 -0.0569743
235 1 0.924993 0.100084 0.0244057 0.0577759 -3.36529 -0.0356465 0.0631943 0.145261
1754 1 0.924427 0.0751781 0.0499476 0.0341266 -3.36686 0.100594 0.0250411 -0.00265305
1833 1 0.899709 0.100313 0.0497732 0.0164395 -3.36441 0.0661771 -0.00724821 0.0285226
84 1 1.00026 0.0747333 0.0250804 0.0401279 -3.34654 -0.139484 0.025329 -0.0177823
1761 1 1.00021 0.0999397 0.0498986 0.0187987 -3.3502 -0.0770526 0.099664 0.0434236
160 1 0.950217 0.0752866 0.0249884 0.0265084 -3.36262 -0.0638444 -0.0291979 0.0394073
239 1 0.975125 0.100311 0.0251366 0.0132325 -3.35748 0.0157384 -0.0485131 -0.012332
1758 1 0.974912 0.075615 0.0499448 0.0428737 -3.36281 -0.0304003 -0.0664553 0.0229041
1837 1 0.949455 0.100576 0.0499462 0.0561844 -3.35618 0.0665893 -0.0981996 -0.0349811
161 1 1.00003 0.0998672 0.000154287 0.028396 -3.35495 -0.0386263 0.0600533 -0.0563671
162 1 0.0251006 0.125218 -0.000438011 0.0346271 -3.35278 -0.0410846 -0.0608696 0.113549
168 1 0.0499038 0.125273 0.0248509 0.0237906 -3.35766 -0.020079 -0.117217 0.0452835
243 1 0.0249812 0.150151 0.0247727 0.0179967 -3.35997 0.0205594 0.0144978 0.0505538
1762 1 0.0254104 0.125015 0.0500818 0.0294889 -3.35927 -0.0703141 0.0194142 -0.0364779
1845 1 0.0497883 0.15019 0.0499647 0.0330748 -3.35423 0.106168 -0.00690359 -0.0222
164 1 0.00031039 0.125232 0.0250964 0.0341808 -3.36471 -0.0597795 -0.0241502 -0.0440927
172 1 0.0997865 0.124964 0.0253883 0.0352612 -3.36339 0.123731 0.0701317 -0.0540218
247 1 0.0749523 0.149864 0.0252215 0.0136733 -3.35326 0.0479485 0.0403839 -0.0205507
249 1 0.100085 0.150066 5.10318e-05 0.0102183 -3.36667 -0.0312581 -0.0331587 0.0498174
1766 1 0.0747782 0.125163 0.0501868 0.0218025 -3.35516 0.0306749 0.0106672 -0.0269506
1849 1 0.100121 0.150317 0.050288 0.020455 -3.36703 0.0616353 -0.11222 -0.0462013
170 1 0.125175 0.125317 -0.000192994 0.0247515 -3.361 -0.0545042 -0.0926364 0.0848627
176 1 0.149875 0.12487 0.0249095 0.0242549 -3.35075 0.000541009 0.00045871 -0.0240161
251 1 0.125131 0.149962 0.0250929 0.015791 -3.36661 -0.0511927 0.0143257 0.00158203
1770 1 0.125655 0.124879 0.0498568 0.0821338 -3.36018 -0.1944 0.0532052 0.0586084
1853 1 0.150098 0.150206 0.050395 0.0373957 -3.35229 0.00502012 -0.0634604 -0.0752324
253 1 0.150179 0.150261 7.50328e-05 0.018919 -3.34807 -0.0214185 -0.0358617 0.0611535
180 1 0.200113 0.12502 0.0248012 0.0231423 -3.35085 0.0690777 -0.0140125 0.0615812
255 1 0.174842 0.149786 0.0255682 0.0632827 -3.35087 -0.0215555 0.129657 -0.125862
1774 1 0.174909 0.124602 0.0494733 0.0576246 -3.35189 0.011331 0.0500743 0.13203
1857 1 0.1998 0.14976 0.0497284 0.0622471 -3.36327 0.11361 0.0415173 0.107565
184 1 0.250019 0.124935 0.0250101 0.0137604 -3.3597 0.0803206 0.0257712 -0.024456
259 1 0.225495 0.150303 0.0251916 0.0505193 -3.35716 -0.111187 -0.0603234 0.00665939
1778 1 0.225435 0.125257 0.0499638 0.0413862 -3.36106 -0.125104 -0.0772759 0.0108673
1861 1 0.250099 0.149686 0.0502133 0.0346934 -3.3569 -0.00340538 0.147181 -0.00488295
188 1 0.300485 0.125142 0.025268 0.01985 -3.36552 -0.0815044 -0.0658031 -0.0445891
263 1 0.27534 0.150137 0.0252085 0.0134492 -3.37113 -0.0495428 -0.010794 -0.0174884
1782 1 0.275033 0.125388 0.0500603 0.0437435 -3.35847 0.0495617 -0.108451 -0.0509627
1865 1 0.30059 0.149972 0.0503714 0.0460221 -3.35714 -0.115243 0.0365794 -0.089774
192 1 0.35012 0.124998 0.0251932 0.0129785 -3.35289 0.0384183 -0.0234823 -0.0228574
267 1 0.325721 0.150069 0.0252936 0.0439443 -3.35119 -0.116134 -0.0242538 -0.0255891
1786 1 0.325005 0.12481 0.0500567 0.0210377 -3.35832 0.0528733 -0.0067314 0.0354598
1869 1 0.350076 0.150129 0.0502133 0.0172438 -3.36462 0.0221979 -0.0226639 -0.00236969
186 1 0.325489 0.124695 0.000202711 0.0213393 -3.35594 -0.0719079 0.0662955 -0.0177269
196 1 0.400002 0.124763 0.0250589 0.00890923 -3.35829 0.0228307 -0.00425513 -0.0142524
271 1 0.375204 0.149832 0.0250934 0.00723159 -3.36173 -0.0118281 0.0535845 0.0264948
1790 1 0.375177 0.124918 0.0497397 0.0162422 -3.3625 -0.0101012 0.0332437 0.0959024
1873 1 0.400312 0.150292 0.0500068 0.0357723 -3.35429 -0.106433 -0.0792462 -0.0531291
194 1 0.425128 0.124347 0.000244801 0.0376375 -3.35863 -0.0405223 0.0912677 0.00355093
200 1 0.449818 0.124583 0.0251442 0.0200811 -3.3625 0.0794571 0.0684946 -0.0651499
275 1 0.424765 0.149964 0.0248634 0.019898 -3.35138 0.0840112 -0.0461278 0.0327498
1794 1 0.424862 0.124874 0.0498034 0.0121609 -3.35337 -0.00543614 0.00523891 0.0523252
1877 1 0.449803 0.149775 0.0495213 0.0395971 -3.35144 0.00203517 0.0598739 0.114363
204 1 0.499718 0.124827 0.0253603 0.031839 -3.36098 0.0116945 0.0494857 -0.0737098
279 1 0.474559 0.150265 0.0252474 0.063912 -3.3566 0.134635 -0.14489 -0.050493
283 1 0.525111 0.150231 0.0253462 0.0358746 -3.35089 -0.0411312 -0.0731233 -0.057059
1798 1 0.475177 0.124815 0.0502149 0.0328588 -3.35185 -0.0605095 0.00963915 -0.0584717
1802 1 0.524844 0.124908 0.0499399 0.0112003 -3.36423 0.0171315 -0.0200984 0.0436072
1881 1 0.499793 0.14996 0.0498929 0.0149609 -3.36073 0.00636683 0.0398419 0.0665228
206 1 0.575111 0.1251 -0.000239943 0.0169581 -3.34851 -0.0448684 -0.0588928 0.0382543
208 1 0.549866 0.124947 0.024842 0.0203435 -3.35718 0.0202469 0.00799533 0.0855932
285 1 0.550162 0.149829 0.000141901 0.023584 -3.35635 -0.0602304 0.0977034 -0.07172
287 1 0.57468 0.150261 0.0247771 0.0349195 -3.36662 0.0618704 -0.0516592 0.114774
1806 1 0.574688 0.124671 0.0503636 0.034207 -3.35781 0.0137143 0.0991881 -0.11928
1885 1 0.54983 0.150055 0.0501255 0.0072184 -3.35698 0.0260029 -0.0138284 -0.043456
212 1 0.599634 0.12495 0.024952 0.0137702 -3.3643 0.0326139 0.0497388 0.0562958
289 1 0.599985 0.149689 -0.000160746 0.0186182 -3.35335 0.0678747 0.0929317 0.0420559
291 1 0.625187 0.149874 0.0248485 0.0287373 -3.36728 -0.0892437 -0.021704 0.0643488
1810 1 0.624609 0.124893 0.0501847 0.0109294 -3.36087 0.00614412 -0.0304564 -0.0774062
1889 1 0.599572 0.149803 0.0501077 0.0194498 -3.3666 0.0444457 0.0246234 -0.0909981
214 1 0.674713 0.124829 -9.42798e-05 0.0192038 -3.35822 0.0985703 0.0206893 0.0367029
216 1 0.649846 0.124843 0.0249695 0.00750532 -3.36039 -0.0157225 -0.0374918 0.0545914
293 1 0.64972 0.149719 0.000108632 0.0191911 -3.35319 0.11361 0.0258787 -0.00734334
295 1 0.674719 0.149592 0.0254004 0.0397955 -3.36361 0.0149741 0.0992016 -0.0678591
1814 1 0.674939 0.124862 0.0499319 0.0155675 -3.35422 -0.0361556 -0.00289507 0.0646524
1893 1 0.649843 0.149725 0.0505389 0.0461321 -3.35232 0.00222583 0.0436636 -0.139082
220 1 0.699998 0.125083 0.0251567 0.0263786 -3.35749 -0.0424018 -0.0948429 -0.0659363
299 1 0.724732 0.149587 0.0251126 0.0229253 -3.3568 0.0403284 0.0974912 -0.0417053
1818 1 0.724571 0.124841 0.0501352 0.0226457 -3.35769 0.112462 -0.0697926 -0.0281342
1897 1 0.699877 0.149845 0.050375 0.0199365 -3.35995 -0.0692351 0.0575791 -0.0519575
297 1 0.699743 0.149771 -4.14667e-05 0.0211529 -3.36319 0.0155363 0.00414036 0.0235847
222 1 0.775126 0.124773 0.000268892 0.0140717 -3.35451 -0.0472948 0.0713502 -0.0521889
224 1 0.749916 0.124716 0.0249558 0.010223 -3.35953 -0.0504109 0.0266647 0.0394343
303 1 0.774845 0.150096 0.0252623 0.0231845 -3.36197 0.0192944 -0.051112 -0.0449694
1822 1 0.774738 0.124733 0.0498854 0.0171803 -3.36235 0.0538584 0.0480348 0.0654449
1901 1 0.74965 0.149671 0.0500775 0.0138049 -3.35952 0.0425997 0.0340436 -0.0342023
228 1 0.799715 0.124696 0.0252887 0.0246824 -3.35507 0.0322822 0.0847921 -0.0905916
307 1 0.824689 0.150102 0.0250904 0.0119452 -3.35757 0.0159002 -0.0491623 -0.0273899
1826 1 0.824422 0.124906 0.0499702 0.0364364 -3.35043 0.201628 0.0170271 0.0122122
1905 1 0.800017 0.149969 0.0500591 0.0182767 -3.35847 -0.10664 0.0151251 -0.0260299
305 1 0.799859 0.150169 0.000199022 0.0204732 -3.36196 -0.021021 -0.0611336 -0.0269484
230 1 0.874803 0.12516 0.000175615 0.0167658 -3.35694 0.041367 0.0448624 -0.06991
232 1 0.849744 0.125185 0.025407 0.0427356 -3.36494 -0.019394 -0.0265534 -0.0505231
311 1 0.874884 0.150159 0.0249844 0.0147427 -3.35753 -0.0230274 -0.00291081 -0.0277163
1830 1 0.874759 0.125255 0.0502874 0.0319529 -3.35968 -0.046014 -0.0815897 -0.0602479
1909 1 0.849832 0.150096 0.0500315 0.00870663 -3.36566 -0.0374873 -0.0334345 0.0470585
236 1 0.899375 0.125068 0.0248798 0.0537245 -3.36432 0.183424 0.0569853 -0.0192587
313 1 0.900063 0.150749 2.77251e-05 0.0607397 -3.3555 -0.0434448 -0.168592 0.0387344
315 1 0.925069 0.15022 0.0250533 0.0188441 -3.35862 -0.0576281 -0.0392285 -0.0860304
1834 1 0.92465 0.125642 0.0498287 0.048248 -3.35448 0.0119829 -0.16207 -0.0280761
1913 1 0.89999 0.15021 0.0497376 0.0152168 -3.34747 -0.0229357 -0.0127462 0.0527361
1841 1 0.999981 0.149737 0.050174 0.0540076 -3.36622 0.0748326 0.0943824 -0.053774
238 1 0.975017 0.124909 1.30094e-05 0.0209521 -3.36201 0.0656003 0.079667 -0.0329174
240 1 0.950066 0.125282 0.0250721 0.0156796 -3.35175 -0.0581627 -0.024225 -0.0420017
319 1 0.975025 0.15007 0.0247246 0.0114462 -3.35924 0.0628255 -0.0378901 0.041318
1838 1 0.974867 0.125017 0.0500206 0.0116293 -3.36028 0.0714099 -0.00956719 0.0218402
1917 1 0.950046 0.149972 0.0499639 0.0135856 -3.34752 0.00960904 0.0516012 -0.00883709
241 1 1.00025 0.149873 -0.000454524 0.0255327 -3.35859 -0.0792491 0.0120677 0.0679001
242 1 0.0250383 0.175142 -0.000428788 0.0274261 -3.36362 0.0417172 -0.0143722 0.108793
248 1 0.0503488 0.175174 0.0249916 0.0174203 -3.36331 -0.0925269 0.00790252 0.0145042
323 1 0.0251593 0.200113 0.025031 0.0069153 -3.35721 -0.0384776 -0.0450143 -0.0502861
325 1 0.0499618 0.200242 1.66164e-05 0.0143452 -3.36352 0.0256852 -0.00398638 0.00705976
1842 1 0.0253152 0.175295 0.0500045 0.020046 -3.35346 -0.023968 -0.0543917 -0.0757278
1925 1 0.0500567 0.200448 0.0499495 0.0168479 -3.36164 0.0444737 -0.0993378 0.0319463
246 1 0.0748461 0.175127 0.000218165 0.01532 -3.35116 0.0700631 -0.0210543 -0.00508561
252 1 0.0997856 0.17494 0.02514 0.0118399 -3.3577 0.0564968 0.00402287 -0.0300491
327 1 0.0752499 0.200255 0.0251355 0.0187384 -3.35922 -0.08494 -0.0327018 0.0249652
329 1 0.0998198 0.199995 1.95752e-05 0.00400753 -3.35333 0.0530632 -0.0189846 -0.00602622
1846 1 0.075156 0.174945 0.0502061 0.0197807 -3.35553 -0.0400774 0.0673509 -0.0369336
1929 1 0.0999778 0.200081 0.0502397 0.0173992 -3.36047 -0.00944911 0.0453527 -0.0495101
250 1 0.124675 0.174952 -0.000254532 0.0270581 -3.35975 0.0769077 0.0695379 0.103257
256 1 0.149779 0.17509 0.0251217 0.00989661 -3.36501 0.0355632 -0.0475124 -0.0465274
331 1 0.124816 0.199949 0.024909 0.00381271 -3.36192 0.0227928 0.00334985 -0.0282047
1850 1 0.124956 0.175099 0.050003 0.00791448 -3.35469 0.00882841 0.0123899 0.0129688
1933 1 0.149929 0.200014 0.0499034 0.016118 -3.35062 -0.0162092 0.0309504 0.106722
260 1 0.199877 0.174799 0.0253003 0.0160719 -3.37171 -0.0238978 0.066902 -0.0339339
335 1 0.174384 0.199859 0.0255479 0.0636436 -3.35502 0.157151 -0.030914 -0.12269
1854 1 0.174967 0.174987 0.0505806 0.0322046 -3.35397 0.0452891 0.00428089 -0.0996967
1937 1 0.200012 0.19977 0.050408 0.0159405 -3.3548 -0.0373652 0.0108263 -0.0826706
264 1 0.250141 0.175124 0.0250201 0.0114956 -3.34697 0.0321288 -0.0754807 0.0651915
339 1 0.224981 0.199716 0.0248032 0.0326807 -3.35561 -0.046432 0.0565327 0.0533502
1858 1 0.225129 0.17534 0.0501443 0.0502776 -3.35936 -0.0159237 -0.152048 -0.021227
1941 1 0.250012 0.199855 0.0498554 0.0156782 -3.35262 -0.0268817 0.0226596 0.0404721
268 1 0.300297 0.175064 0.025328 0.0166547 -3.357 -0.0651314 -0.0568756 -0.0424677
343 1 0.275084 0.199799 0.0252172 0.0175855 -3.35325 0.0377253 0.101335 -0.0214335