ITEM: TIMESTEP
18500
ITEM: NUMBER OF ATOMS
32000
ITEM: BOX BOUNDS pp pp pp
7.4894697637861647e+00 7.3510530236208680e+01
-2.8171957011382247e+00 8.3817195701132363e+01
-6.2841008887284318e+00 8.7284100888724666e+01
ITEM: ATOMS id type xs ys zs c_csym c_peratom fx fy fz
2 1 0.041531 0.0240606 0.00193703 0.0520407 -3.36493 0.0447834 0.0813457 -0.0144523
78 1 0.00763749 0.0243501 0.0214687 0.0660188 -3.3496 -0.00617542 0.0488426 -0.0941452
81 1 0.0380487 0.0478431 0.0233023 0.063463 -3.35646 0.00328964 -0.118343 0.064317
159 1 0.0036262 0.0477939 0.0426904 0.0752195 -3.3344 0.0485044 -0.00201697 -0.208382
79 1 0.00313169 0.000685991 0.0434079 0.0131482 -3.35318 -0.0220452 0.0120632 -0.0591799
8 1 0.0677376 0.0238007 0.0264811 0.0558817 -3.35901 -0.013942 0.128028 0.0415204
12 1 0.101602 0.0230511 0.00792066 0.134209 -3.32672 -0.0475223 0.33196 0.0613154
87 1 0.0719661 0.0474441 0.00448559 0.0543505 -3.36697 -0.0333186 0.0247446 -0.0270008
1689 1 0.097604 0.0476289 0.0291884 0.13335 -3.34501 -0.207346 0.017367 0.0783014
1609 1 0.0964153 0.999795 0.0294245 0.118554 -3.3419 -0.000962521 -0.086519 0.254633
1610 1 0.125682 0.0231223 0.0324829 0.144388 -3.37058 0.202814 0.122845 0.109767
91 1 0.131292 0.0484999 0.0116694 0.297031 -3.3369 -0.0147221 -0.296528 -0.234437
16 1 0.160691 0.0234889 0.0137565 0.297327 -3.37155 -0.126961 0.00977156 0.194332
1614 1 0.183914 0.0214901 0.0401848 0.455665 -3.32411 0.0497919 0.445603 -0.19723
1693 1 0.156372 0.0476855 0.036167 0.135663 -3.33501 -0.082379 -0.265464 -0.0595628
1613 1 0.155183 -0.00072046 0.0358479 0.164979 -3.3316 -0.220587 0.0177841 0.231152
95 1 0.190123 0.0470031 0.0185784 0.191724 -3.31529 -0.0322595 -0.0392856 -0.235247
20 1 0.216663 0.0226081 0.0212686 0.424495 -3.33857 0.262536 -0.00537704 -0.0613227
1697 1 0.213454 0.0465722 0.0437829 0.374548 -3.34396 0.106594 -0.224204 -0.116367
15 1 0.188835 0.998523 0.0180965 0.139039 -3.32185 -0.0342836 0.0318108 -0.173048
1617 1 0.213045 0.998596 0.0431543 0.2209 -3.30335 -0.230654 -0.213206 -0.151375
1618 1 0.241846 0.0216917 0.0456514 0.263173 -3.33523 0.185622 0.135282 0.0619545
99 1 0.249039 0.0461236 0.0263152 6.86056 -3.35558 0.0624267 -0.148553 -0.228877
18 1 0.252094 0.0220955 0.0033041 6.49132 -3.36478 -0.0225426 0.189476 0.0895446
24 1 0.276917 0.0211058 0.0280719 6.85199 -3.37738 0.0504644 0.0604667 -0.128231
22 1 0.297126 0.0289709 0.00201614 0.907896 -3.29126 -0.219599 -0.0796441 0.229159
28 1 0.321523 0.027014 0.0256981 0.171251 -3.33345 -0.205962 0.0791061 0.113588
32 1 0.362935 0.03257 0.0232064 0.223271 -3.305 0.0128797 -0.141884 0.0615188
25 1 0.324748 0.00544492 0.00259054 5.79209 -3.27137 -0.154551 -0.0817257 0.354676
27 1 0.347742 0.00181962 0.0269693 0.307764 -3.29074 -0.131813 0.0539869 -0.146684
31 1 0.388563 0.00581704 0.022541 0.670436 -3.28892 0.175059 0.317537 -0.00652827
36 1 0.404617 0.0369109 0.0201452 6.82055 -3.30812 -0.0525334 0.0217768 -0.112086
35 1 0.429727 0.0123347 0.0210611 7.97502 -3.27865 0.06644 0.0729571 -0.301542
40 1 0.441496 0.0384987 0.00161192 6.93534 -3.28942 -0.202981 0.263331 0.197621
39 1 0.46613 0.0138336 0.00530727 10.8489 -3.11943 -0.0286126 0.0413034 -0.0466968
1638 1 0.464293 0.0343009 0.0269735 1.66031 -3.17515 -0.151062 0.118597 0.034066
1641 1 0.496457 0.0171269 0.0355286 6.99199 -3.28044 0.0396498 -0.316523 -0.0908238
44 1 0.499529 0.031373 0.0085121 11.4524 -3.28804 0.0869122 0.0340786 -0.140912
43 1 0.534198 0.0188644 0.019435 10.0902 -3.2477 -0.0522243 -0.0611653 -0.0979851
1645 1 0.562908 0.00908096 0.0515153 7.50222 -3.20886 0.201789 -0.013242 -0.294441
48 1 0.565346 0.0353136 0.0310858 5.50191 -3.27253 0.243433 -0.0604928 -0.277094
52 1 0.574331 0.0128883 0.0100952 5.78515 -3.29085 -0.0779995 0.107425 0.280895
1650 1 0.598574 0.013006 0.0360633 2.6477 -3.27798 0.0541354 -0.0473438 0.0249399
131 1 0.602613 0.0371324 0.0158682 0.209345 -3.31065 0.00903137 0.130958 0.0791337
1733 1 0.628984 0.0375946 0.0417195 7.0324 -3.29969 -0.31324 0.0670608 0.0212707
56 1 0.635524 0.0163856 0.0212565 0.590863 -3.27745 0.102264 -0.218166 0.237749
135 1 0.665487 0.041303 0.028477 5.92393 -3.25868 0.0708579 0.194375 -0.223116
54 1 0.671938 0.0180942 0.0070997 0.189086 -3.36108 0.116774 0.0317998 -0.179934
60 1 0.697917 0.0195692 0.0323201 6.43713 -3.22853 0.049765 0.0469443 -0.19918
64 1 0.732695 0.021129 0.0161766 12.3795 -3.26921 0.21967 -0.121814 0.0996856
139 1 0.702059 0.0436764 0.0127684 11.9579 -3.26509 -0.169727 -0.0579713 0.0707362
68 1 0.791823 0.0221 0.0219799 12.8452 -3.26182 -0.00231309 0.0451806 -0.12733
143 1 0.760271 0.0457483 0.018221 12.6432 -3.26961 0.223741 -0.324919 0.0264256
1745 1 0.789566 0.0457756 0.0409784 6.74182 -3.24745 -0.256378 0.135747 0.12238
145 1 0.797487 0.0456311 0.999022 0.167336 -3.35711 -0.206526 -0.0371456 0.179732
72 1 0.854027 0.0239852 0.0275155 0.172145 -3.34937 -0.232913 -0.155806 -0.0856071
147 1 0.823249 0.0469056 0.0233023 0.113211 -3.34063 0.148717 -0.199373 -0.0903807
149 1 0.856499 0.0468901 0.00478539 0.170168 -3.34989 0.0887839 -0.0213263 0.0764988
66 1 0.827843 0.0220076 0.00287675 0.220598 -3.36044 -0.173463 0.21452 0.00966445
1666 1 0.819062 0.0233567 0.0448269 7.00452 -3.27515 0.159579 -0.0981912 0.171734
76 1 0.913512 0.0231597 0.0340956 0.0936349 -3.34878 0.0905449 0.0951993 -0.169605
70 1 0.886609 0.0235248 0.00894199 0.124395 -3.31892 0.169878 0.0503422 -0.00047587
151 1 0.883666 0.0464782 0.0303166 0.0698715 -3.33727 -0.0121733 0.15254 -0.150241
153 1 0.916789 0.0463073 0.0111949 0.101512 -3.36604 0.110949 0.143361 0.0511628
74 1 0.946959 0.0231538 0.0152422 0.132909 -3.36949 0.171675 0.0964134 0.0489294
80 1 0.973799 0.0249313 0.040627 0.288854 -3.35133 -0.113808 -0.340783 -0.316037
155 1 0.94332 0.0469291 0.0357476 0.121203 -3.3521 0.0164341 0.0205467 0.1528
157 1 0.977709 0.0471476 0.0175679 0.0501991 -3.35727 0.0590603 -0.0253105 0.0706801
158 1 0.0085493 0.0708714 0.0205463 0.25779 -3.34319 -0.244971 -0.0969645 -0.299502
161 1 0.0371865 0.0940801 0.0225788 0.0837184 -3.34961 0.0094357 0.194306 0.0289472
239 1 0.00226441 0.0938141 0.0404937 0.366055 -3.35363 0.0648768 0.220681 0.413505
30484 1 0.0423841 0.0711071 0.00126185 0.100852 -3.35165 -0.166825 0.000345604 -0.129541
82 1 0.0669847 0.0718106 0.0262298 0.124842 -3.34722 0.135527 -0.174069 0.0361007
92 1 0.101448 0.0718647 0.00819038 0.136772 -3.36083 0.0596627 -0.00629024 -0.304564
167 1 0.0971206 0.0955534 0.0285642 0.172233 -3.3305 -0.0736569 -0.108996 0.215756
165 1 0.0711896 0.0948225 0.00342061 0.186141 -3.35126 0.102902 0.0930038 0.165127
1690 1 0.127132 0.0719632 0.0325708 0.0636834 -3.33079 -0.00469215 0.0171009 2.00315e-06
171 1 0.131318 0.0959119 0.0107777 0.135618 -3.35603 0.174868 -0.162094 -0.17843
96 1 0.161578 0.0711796 0.0140978 0.199826 -3.33843 -0.04297 0.23442 0.0088303
1694 1 0.186171 0.0710547 0.039196 0.230975 -3.32932 -0.0929968 0.0307244 0.194437
1773 1 0.156473 0.0957446 0.0353844 0.364777 -3.35782 0.144608 -0.179778 0.133115
175 1 0.194113 0.0941881 0.0191984 6.63978 -3.33974 -0.229024 0.188423 -0.129259
100 1 0.221934 0.0704889 0.0222522 6.34993 -3.35072 0.277314 0.0453968 0.041598
1777 1 0.219112 0.0937351 0.0439196 6.68231 -3.34504 -0.0898595 -0.0122667 0.0140197
1698 1 0.246318 0.0690256 0.047784 6.75213 -3.34213 0.000499062 0.108432 -0.202944
103 1 0.293856 0.0523283 0.0243123 0.175232 -3.30396 0.0988282 -0.133247 -0.133844
104 1 0.267639 0.0767325 0.0215009 0.236033 -3.33325 -0.0133479 0.0919718 -0.0017635
108 1 0.311203 0.0839255 0.0177524 0.398257 -3.31172 0.0375614 0.0199219 0.21066
107 1 0.336653 0.0586269 0.0211898 0.294852 -3.30601 -0.108739 -0.0444457 0.00874647
112 1 0.355267 0.0905508 0.0137365 6.53561 -3.37319 -0.167257 0.0830397 0.071517
1706 1 0.33491 0.0819726 0.0420432 0.317138 -3.32751 -0.0463482 0.115607 0.0225499
1709 1 0.359848 0.0567449 0.045252 0.328755 -3.3082 0.192198 -0.0713203 -0.117632
1710 1 0.37873 0.0893663 0.0388331 6.34519 -3.37083 -0.184 -0.157198 -0.202132
111 1 0.377767 0.0626443 0.0186644 4.84647 -3.29692 0.142002 0.13088 0.0122872
115 1 0.410879 0.0607702 -0.00015751 6.62506 -3.25826 0.168101 -0.206787 0.0959582
1713 1 0.401792 0.0602481 0.0430619 4.5513 -3.29521 -0.0311135 -0.0348252 -0.240046
116 1 0.397137 0.089391 0.00923567 5.23747 -3.28734 0.0399104 -0.0646916 -0.0498633
1714 1 0.421519 0.0860714 0.0344408 4.62518 -3.29114 0.196974 0.250612 -0.0661486
1717 1 0.434217 0.058575 0.0243188 5.42323 -3.24151 0.230861 -0.10554 -0.077606
119 1 0.472805 0.0580946 0.0114415 4.82351 -3.20903 -0.104756 0.250656 -0.159947
120 1 0.441894 0.0825636 0.00641035 4.18736 -3.347 -0.069459 0.00728641 -0.102326
1718 1 0.466626 0.080436 0.0318953 5.33073 -3.27913 -0.208167 0.0462026 0.0537806
1721 1 0.498123 0.0525045 0.0342134 7.09332 -3.26538 -0.106996 0.0104812 0.193218
124 1 0.505209 0.0808003 0.0214673 1.43084 -3.28186 0.0403995 -0.0548499 -0.261534
123 1 0.535229 0.0559716 0.0248739 6.04419 -3.29997 0.170286 -0.0138777 -0.370453
128 1 0.54161 0.0835652 0.00608712 0.699221 -3.30978 -0.267568 -0.286738 -0.0646066
1722 1 0.527259 0.0789593 0.0471017 0.768862 -3.28267 -0.103134 -0.0208189 -0.249584
1726 1 0.564315 0.0804544 0.0320488 0.618091 -3.31956 0.0633506 -0.0414186 -0.00404582
127 1 0.572591 0.0593206 0.0106736 6.97509 -3.29668 -0.138117 0.17633 0.186292
132 1 0.601411 0.0836627 0.0150821 6.50551 -3.30816 -0.161421 -0.1253 -0.0360459
1729 1 0.597318 0.0593951 0.0377446 1.72856 -3.34769 -0.147852 -0.044408 -0.3038
1730 1 0.628334 0.085337 0.0384369 9.60147 -3.18772 -0.149257 0.198405 -0.044012
136 1 0.633317 0.0618017 0.0211106 6.20386 -3.24561 -0.203168 -0.229125 -0.134323
1734 1 0.66608 0.0702501 0.0424841 13.0652 -3.25061 0.0377541 -0.0656944 -0.0858811
140 1 0.671178 0.0667298 0.0104368 9.51927 -3.26812 0.269546 0.0255311 -0.195125
215 1 0.641662 0.090246 0.00669389 7.02444 -3.29899 0.00440856 -0.0309865 0.0652062
144 1 0.728282 0.0676293 0.0154414 11.4501 -3.26501 0.290172 0.0782292 0.21613
219 1 0.698887 0.0912232 0.0131753 10.9997 -3.27044 -0.126802 -0.180686 -0.172509
1821 1 0.727862 0.0924307 0.0342081 6.3862 -3.23614 0.0816825 -0.25249 0.0539795
148 1 0.793641 0.0690068 0.0192259 0.23299 -3.33542 -0.237191 0.0993833 0.0602437
223 1 0.762291 0.0924984 0.0163863 0.194855 -3.33149 0.0717323 -0.189289 0.0836376
1825 1 0.789001 0.0921081 0.0401812 0.159366 -3.35196 -0.00929226 0.202418 -0.0427925
1742 1 0.758493 0.0687343 0.0375426 7.16438 -3.27321 -0.13749 0.0815803 -0.00571509
225 1 0.796668 0.0925895 0.998089 0.0288335 -3.35038 0.0250205 0.0170355 -0.0458263
152 1 0.853852 0.0703028 0.025397 0.164408 -3.35502 -0.08212 -0.139244 0.302977
229 1 0.857751 0.0934882 0.00374632 0.0581051 -3.35186 -0.0933467 0.0729865 0.0488926
146 1 0.827538 0.0704025 0.00120877 0.102052 -3.33653 -0.0467211 -0.163836 -0.107607
227 1 0.82365 0.0930953 0.0221745 0.0494966 -3.3418 -0.168153 -0.00360888 -0.0521957
1746 1 0.818789 0.0697851 0.0441127 0.0559482 -3.36307 0.155826 -0.0155767 0.035929
156 1 0.913258 0.0699738 0.032621 0.0450629 -3.3589 0.00958134 0.0803921 0.0205203
150 1 0.88733 0.0699998 0.0078314 0.043974 -3.3601 0.106661 -0.00662886 -0.0892187
233 1 0.916528 0.0936494 0.010771 0.0262347 -3.35648 0.0269153 -0.121943 -0.0154868
231 1 0.883026 0.0939254 0.0291351 0.083593 -3.34383 0.00651668 -0.157766 -0.000320794
154 1 0.947275 0.0696738 0.0142975 0.0987806 -3.35228 -0.0944144 0.175178 -0.0236637
160 1 0.973555 0.0709365 0.038708 0.118285 -3.35487 -0.0939618 -0.0850309 0.040073
237 1 0.976633 0.0941578 0.0165143 0.0769992 -3.35767 -0.0469129 -0.0482453 0.119005
235 1 0.942678 0.0935533 0.0359362 0.0824816 -3.36424 0.0617838 0.113316 -0.173482
241 1 0.0361297 0.141289 0.0229608 0.0352668 -3.35745 -0.00422512 0.0546521 0.0224679
238 1 0.00691778 0.117472 0.0193355 0.0499917 -3.34278 -0.0127541 0.072027 0.0625455
30564 1 0.0409331 0.118166 0.000576044 0.14598 -3.36389 0.160976 -0.0772608 0.16813
319 1 0.00238878 0.140709 0.0409814 0.100832 -3.352 -0.0612272 0.0629393 0.080747
162 1 0.0662771 0.117796 0.0258817 0.0833199 -3.35574 -0.033868 0.0203409 0.0165955
172 1 0.127454 0.118943 0.0328557 0.115607 -3.33239 -0.0395381 0.0473144 -0.0618178
245 1 0.0950976 0.141736 0.0299867 0.163575 -3.3426 0.238516 0.0786459 -0.0215699
30643 1 0.0700672 0.142528 0.0056203 0.153648 -3.34022 0.0937275 -0.117634 -0.202571
166 1 0.100793 0.118368 0.00785753 0.128087 -3.339 0.0472913 0.187039 -0.0482067
249 1 0.130581 0.142213 0.0120328 0.589711 -3.36863 0.0866194 0.102304 -0.107983
176 1 0.16337 0.119259 0.0145021 1.70167 -3.33517 -0.257964 -0.116618 0.168827
255 1 0.187006 0.146342 0.0150618 6.02474 -3.27549 -0.0618136 0.18933 0.125833
251 1 0.157685 0.142702 0.0358861 0.689703 -3.36046 -0.0490913 -0.0489746 0.160242
1774 1 0.187952 0.11725 0.0402786 5.59731 -3.33758 -0.0281425 0.27378 -0.117562
179 1 0.242013 0.101463 0.0193147 0.788278 -3.29569 -0.0339718 -0.373987 -0.0549294
180 1 0.214085 0.123611 0.0171638 1.52512 -3.28682 -0.0305364 -0.0359576 0.0215835
1778 1 0.238118 0.122851 0.0420451 1.50836 -3.30295 0.131495 -0.0137449 0.14144
1857 1 0.210423 0.145419 0.0401979 5.88265 -3.30653 -0.085778 0.0229132 -0.00868353
184 1 0.255381 0.13178 0.0148667 0.107234 -3.32112 0.235239 0.114202 0.0376798
183 1 0.283827 0.10801 0.0171561 0.131176 -3.30207 -0.133274 0.0680465 -0.106765
188 1 0.298177 0.140885 0.0129429 7.66696 -3.34616 -0.0770804 0.0256603 -0.0550517
1782 1 0.280043 0.131035 0.039626 0.116885 -3.34201 -0.134463 0.0596582 0.0399498
1785 1 0.306987 0.106481 0.0410775 0.0649951 -3.30187 0.0832987 -0.0486047 0.162254
1781 1 0.26589 0.0994565 0.0443431 0.7715 -3.31903 -0.14318 -0.068507 0.00434466
1789 1 0.347917 0.113287 0.0378898 7.18903 -3.32308 0.167102 0.116354 -0.0911395
187 1 0.325296 0.115655 0.0135106 6.9892 -3.31409 0.262953 -0.0564026 0.0282988
192 1 0.355464 0.140753 0.0183566 0.336255 -3.25179 -0.186187 -0.235558 -0.13985
1786 1 0.321886 0.139129 0.0373891 7.62929 -3.33644 0.0338549 -0.0398418 0.0845203
195 1 0.426413 0.111114 0.0142053 0.47887 -3.33596 0.0486979 0.202917 0.0158228
191 1 0.382748 0.117409 0.0191527 7.59837 -3.29968 0.167144 -0.162136 -0.229074
196 1 0.413408 0.140933 0.0240851 7.7603 -3.34764 -0.0429282 -0.220535 -0.183401
1790 1 0.378117 0.13713 0.0424714 5.97062 -3.24284 -0.0781817 0.183087 -0.0148922
199 1 0.471079 0.106129 0.0147901 6.86092 -3.32172 -0.0027297 -0.142895 -0.100235
200 1 0.455164 0.134707 0.0213572 0.458287 -3.30288 -0.0416496 -0.169065 -0.0892722
1801 1 0.495327 0.102166 0.0409757 7.54223 -3.33416 -0.0180269 0.164267 0.154983
1797 1 0.450216 0.108924 0.0402267 0.284358 -3.30163 -0.0619391 -0.0088857 0.106662
1805 1 0.533544 0.104061 0.0279441 0.356026 -3.29964 -0.0944358 -0.00959463 -0.134818
208 1 0.538761 0.128037 0.00617644 6.55742 -3.31466 -0.035389 0.173982 -0.145342
1802 1 0.50167 0.128182 0.0220151 7.06657 -3.31254 -0.137955 -0.248962 -0.110426
203 1 0.508867 0.106352 0.000910449 0.481409 -3.31373 0.133102 -0.224865 0.12313
1806 1 0.56222 0.12768 0.0324303 6.11595 -3.27486 0.0122223 0.114668 -0.021988
207 1 0.56919 0.106541 0.0114325 6.00334 -3.28589 0.154664 -0.120941 -0.298439
212 1 0.579836 0.136008 0.00018447 6.75736 -3.32796 -0.150606 0.00739612 -0.00205192
211 1 0.609642 0.112798 0.00356411 5.80746 -3.32146 0.0386015 0.0989803 -0.026629
1809 1 0.59211 0.105025 0.035963 7.33113 -3.29874 0.472492 0.221813 0.0732335
1810 1 0.604189 0.13651 0.0255463 7.03394 -3.34774 0.0644377 -0.214066 0.281321
216 1 0.639195 0.138054 0.00633123 0.254117 -3.31571 -0.0848954 -0.130817 -0.0995412
220 1 0.66885 0.114809 0.00906021 6.83905 -3.30354 0.234921 -0.144021 -0.0277983
1813 1 0.635706 0.113971 0.0277076 7.9479 -3.30504 -0.162049 0.0813226 0.142599
1897 1 0.665593 0.138724 0.0296839 6.4234 -3.25104 0.043343 -0.0754936 0.223427
224 1 0.731562 0.114885 0.0137322 0.12979 -3.32047 0.126487 0.186625 -0.28435
1818 1 0.697903 0.116132 0.0309012 6.64075 -3.2577 -0.226833 -0.0166147 0.256379
1901 1 0.728303 0.139378 0.0336589 0.22157 -3.34438 -0.0442867 -0.0523331 0.167479
299 1 0.700382 0.138856 0.0107243 0.146715 -3.33863 -0.0614182 0.0737589 -0.0367135
228 1 0.792788 0.116186 0.0188066 0.050217 -3.36736 -0.00852677 -0.0971485 0.122227
1822 1 0.758111 0.115227 0.0377119 0.187704 -3.33586 0.213865 0.294732 -0.220507
303 1 0.762476 0.138705 0.0162485 0.149755 -3.35967 -0.190983 0.0379074 -0.125525
1905 1 0.788836 0.13992 0.0400294 0.0909636 -3.36158 -0.0644698 -0.103344 0.11927
232 1 0.852184 0.116706 0.0253628 0.0719864 -3.33421 0.220953 0.0916256 -0.206165
307 1 0.822557 0.140551 0.0219293 0.0747508 -3.3409 -0.00814915 -0.148338 -0.0254153
309 1 0.85625 0.141042 0.00395192 0.129417 -3.35495 -0.0136854 -0.211744 -0.0639125
226 1 0.826874 0.116535 1.00005 0.130819 -3.37602 0.0305145 -0.0224377 0.209007
236 1 0.911355 0.116869 0.0315732 0.191669 -3.34782 0.181142 0.0895477 0.115076
230 1 0.886325 0.117086 0.00640428 0.103441 -3.35468 -0.0636542 0.0391589 0.152976
311 1 0.881774 0.140142 0.0283058 0.086641 -3.36556 0.129244 0.0816898 0.058596
313 1 0.916607 0.140713 0.00941074 0.189533 -3.35369 -0.12923 0.0154271 0.205801
234 1 0.945692 0.1174 0.0138627 0.134925 -3.35335 0.151557 -0.0897233 0.00063575
240 1 0.972079 0.117913 0.0381489 0.124042 -3.35851 0.045668 -0.204107 -0.036097
315 1 0.941337 0.140406 0.0354526 0.137032 -3.33763 0.278454 0.0417957 -0.249031
317 1 0.976376 0.140555 0.0160302 0.0894486 -3.36593 0.040366 0.11878 0.18708
321 1 0.0352092 0.188942 0.0240496 0.137165 -3.35858 -0.129192 0.145636 0.0379423
318 1 0.00636762 0.164627 0.0191849 0.195678 -3.35838 -0.116047 0.0121388 0.195328
399 1 0.000308775 0.187601 0.0414276 0.138826 -3.35108 0.142897 0.106402 0.0783296
30644 1 0.0401402 0.166642 0.00183114 0.196284 -3.34114 -0.0288274 -0.170422 -0.0306931
244 1 0.0315346 0.164983 0.0452007 0.0713659 -3.34697 -0.0826356 -0.114706 -0.0556184
242 1 0.0651779 0.165405 0.0268409 0.0924491 -3.347 0.0858233 0.118704 0.0332936
246 1 0.125645 0.166627 0.0335724 0.211076 -3.34089 -0.0754583 -0.19588 -0.108277
325 1 0.0947651 0.190331 0.0314216 0.178638 -3.32679 -0.137251 -0.16662 -0.149812
30723 1 0.0690998 0.190779 0.00674004 0.183567 -3.32546 0.165372 -0.152452 -0.149632
30648 1 0.100675 0.16609 0.0092504 0.360668 -3.34794 -0.245534 0.123746 0.00792034
30727 1 0.127355 0.191721 0.012005 6.86626 -3.34956 0.113798 0.0383205 0.0381518
256 1 0.183187 0.168605 0.0379601 7.04737 -3.3237 -0.215816 0.116507 0.0661961
250 1 0.157891 0.169025 0.0137331 6.81336 -3.33982 -0.147855 -0.0238818 0.0920504
329 1 0.153342 0.191516 0.0357339 6.79453 -3.3441 0.081906 -0.0591392 0.0189007
259 1 0.228202 0.155671 0.0124508 0.211478 -3.29104 -0.135096 -0.00496132 0.215733
260 1 0.198293 0.178861 0.0108238 0.154938 -3.31548 0.247046 -0.00893159 0.0953412
264 1 0.240154 0.188381 0.00910863 7.94796 -3.35908 -0.165942 0.0604931 0.096407
1858 1 0.222537 0.177579 0.0355223 0.170463 -3.32136 0.0769758 0.149501 -0.0824985
1861 1 0.250454 0.15427 0.0375102 0.277118 -3.32608 0.388138 0.0164682 0.0999944
263 1 0.268639 0.164333 0.0111657 7.94457 -3.34819 0.327059 0.0488615 0.109813
1862 1 0.264294 0.186989 0.0339728 7.79916 -3.35168 0.128817 0.0179481 0.0987761
268 1 0.300045 0.188547 0.0169358 0.145598 -3.35161 -0.021982 -0.0119058 -0.126911
1865 1 0.29377 0.163596 0.0363676 8.06937 -3.36092 -0.0546888 -0.0293263 -0.0662828
267 1 0.329999 0.164817 0.0187974 0.435682 -3.33733 -0.143569 0.240938 -0.0300795
272 1 0.358755 0.188701 0.0246881 0.437007 -3.32762 -0.163356 0.11691 -0.0793486
1869 1 0.355197 0.163823 0.0458181 2.48165 -3.3165 -0.0148445 0.0303906 -0.0890367
1866 1 0.324845 0.187916 0.0424405 0.127319 -3.31648 -0.113951 -0.205735 -0.130493
271 1 0.383697 0.163454 0.0235786 0.669032 -3.26145 0.0967837 0.0808786 0.140719
273 1 0.417402 0.165864 0.00428677 6.50036 -3.35395 -0.0445899 -0.0539839 -0.114378
276 1 0.412966 0.186843 0.0292126 0.700134 -3.27883 -0.267382 0.371277 -0.164065
270 1 0.390233 0.190639 0.00527049 0.337997 -3.28538 -0.178013 0.0832842 -0.0346981
275 1 0.442166 0.164445 0.0294897 6.68455 -3.32363 0.16483 -0.257557 0.0745355
280 1 0.445593 0.188911 0.00961192 6.58166 -3.32126 -0.102133 0.316942 0.12993
279 1 0.459867 0.158115 0.0018291 0.395776 -3.28665 0.00365264 -0.119128 -0.0837551
284 1 0.485659 0.181522 0.00933878 5.49044 -3.28875 -0.09471 0.163524 -0.120427
1881 1 0.484601 0.156446 0.0271136 0.74093 -3.29548 -0.0161413 0.0600125 0.262215
1878 1 0.468586 0.187948 0.0365255 7.26404 -3.29518 -0.00518292 0.00962766 -0.26559
1882 1 0.509812 0.180362 0.0340667 5.39745 -3.31102 0.120341 -0.0895341 0.0624562
1885 1 0.530354 0.15065 0.0266215 9.81009 -3.35008 -0.05075 0.275585 0.0549678
1886 1 0.544697 0.180926 0.0176188 4.28611 -3.28711 -0.0828877 -0.129884 -0.0376354
283 1 0.505067 0.153236 0.0010187 8.13568 -3.35528 0.00711275 -0.362016 -0.218685
291 1 0.608944 0.159383 0.00416057 0.121888 -3.33321 0.119872 0.142892 -0.0967723
292 1 0.57928 0.181234 0.99958 0.202627 -3.32681 0.0271519 -0.0344567 0.0851795
1889 1 0.572934 0.157547 0.0227845 7.01164 -3.3071 -0.0622248 -0.0904789 -0.0768243
1890 1 0.603381 0.180092 0.0267075 5.6605 -3.23526 0.0855947 0.132405 -0.0236089
1892 1 0.569963 0.180068 0.04328 9.16668 -3.25451 -0.221952 0.143997 0.0463776
295 1 0.667869 0.161523 0.00957496 0.498154 -3.29507 0.214338 0.0409152 -0.178828
296 1 0.6392 0.18403 0.00752603 0.49003 -3.29193 -0.069742 -0.168593 0.122759
1893 1 0.634694 0.16033 0.0313292 6.46084 -3.27995 0.0621731 0.0568865 -0.0857911
1894 1 0.664505 0.184518 0.0322696 7.63907 -3.27062 -0.329431 0.0190604 -0.23167
300 1 0.694793 0.163088 0.0323156 7.15945 -3.31028 0.294442 -0.199466 0.0139568
304 1 0.730407 0.163024 0.0135783 0.197887 -3.34788 -0.0597879 -0.26372 -0.12312
379 1 0.727168 0.186572 0.0339011 0.117927 -3.34236 -0.038245 0.0361101 0.0617217
377 1 0.700178 0.184677 0.0103737 0.280698 -3.32148 -0.118466 0.0908312 0.189594
308 1 0.791737 0.162946 0.0183618 0.0934324 -3.33456 -0.0851629 0.0964524 0.103647
1902 1 0.757595 0.162984 0.0367592 0.0701124 -3.35876 0.133677 0.0352125 0.166008
383 1 0.761247 0.185919 0.0158318 0.2113 -3.34733 -0.00179438 0.151071 -0.132399
1985 1 0.787206 0.186959 0.0396416 0.10148 -3.36088 -0.177858 0.0337296 0.118058
1906 1 0.817069 0.163573 0.0432996 0.0645748 -3.33741 0.115222 -0.0114372 0.00681483
312 1 0.851344 0.164305 0.0253106 0.100429 -3.34254 0.0764041 -0.102123 -0.133389
387 1 0.820298 0.18711 0.0216281 0.0600288 -3.3406 0.0502733 -0.0291169 -0.136562
389 1 0.854416 0.187677 0.00302619 0.130387 -3.36899 0.266764 0.0407796 0.0321693
306 1 0.825514 0.163994 0.000188865 0.0922965 -3.33999 0.119438 -0.0860266 0.130183
310 1 0.886052 0.16401 0.00737223 0.193832 -3.35969 0.0746204 -0.00557884 -0.231624
316 1 0.912723 0.163486 0.0316286 0.155293 -3.34746 -0.23517 0.124559 -0.0472215
391 1 0.881103 0.187513 0.027124 0.210558 -3.34904 -0.0266549 0.0237352 0.275449
393 1 0.914881 0.188182 0.00973763 0.147297 -3.35012 0.145939 -0.0933897 0.041269
314 1 0.946163 0.163974 0.0134076 0.0778781 -3.35823 -0.00153361 0.0134001 -0.0171826
320 1 0.972596 0.163926 0.038155 0.162997 -3.37481 -0.208847 -0.103495 0.0691479
395 1 0.941241 0.187109 0.034787 0.0801781 -3.35044 -0.0533836 0.101528 0.0688968
397 1 0.974309 0.188261 0.0167948 0.0798538 -3.34045 0.12259 -0.078393 -0.00544696
401 1 0.0347178 0.236107 0.024179 7.74991 -3.29295 -0.090717 0.0186075 0.0316061
398 1 0.00270122 0.212326 0.0204019 0.200134 -3.33217 0.230375 -0.219766 -0.0644944
30724 1 0.03762 0.212591 0.00250382 5.87771 -3.29716 -0.0527096 0.0312389 0.179527
322 1 0.0650839 0.213807 0.0276123 5.96982 -3.29975 -0.13565 -0.0604377 0.214329
326 1 0.123138 0.213867 0.0353372 10.2967 -3.30291 -0.2472 0.00467733 -0.375867
405 1 0.0771454 0.245919 0.0240797 12.8608 -3.32345 -0.0286445 -0.224963 -0.0106004
409 1 0.108848 0.248179 0.00520752 5.29535 -3.24842 0.220273 -0.266656 -0.0936198
30728 1 0.0981518 0.216257 0.0104199 11.6313 -3.32899 -0.0321257 0.0669382 0.123032
335 1 0.170012 0.202048 0.00824679 6.90872 -3.28073 -0.244268 0.0671751 0.182525
336 1 0.163558 0.223213 0.0311708 7.10267 -3.25578 0.085858 0.153472 -0.0830628
330 1 0.138678 0.223857 0.00746016 6.79756 -3.25867 0.12288 0.155206 0.107874
411 1 0.132457 0.244998 0.0297951 3.06265 -3.25395 -0.0127521 0.26881 -0.168612
1937 1 0.19426 0.20208 0.0321676 0.587952 -3.27724 -0.0349757 -0.323325 0.256746
339 1 0.210584 0.213276 0.00672167 10.5683 -3.29181 -0.0328264 -0.278865 -0.037359
340 1 0.203936 0.23371 0.0286097 9.25284 -3.30976 0.20197 0.199974 0.122152
344 1 0.240751 0.23626 0.0130659 0.315405 -3.32811 -0.159802 0.0630585 -0.123078
1941 1 0.234477 0.210276 0.0317073 7.71071 -3.32696 0.249226 0.101297 0.0318992
343 1 0.270575 0.212489 0.0155121 0.20811 -3.33308 -0.122529 0.0359752 -0.145301
348 1 0.299321 0.237339 0.0207012 0.203476 -3.31683 -0.0749661 -0.0890047 -0.135889
1942 1 0.265313 0.235065 0.037745 0.120084 -3.3355 -0.167692 0.0674295 -0.0131545
1945 1 0.295882 0.211539 0.0394489 0.348414 -3.32453 -0.337032 -0.0867407 0.341682
347 1 0.328759 0.212984 0.0225072 0.0702121 -3.32481 0.161294 0.0306516 -0.0847802
349 1 0.360825 0.215147 0.00401562 0.08867 -3.32647 0.0247944 -0.0661268 0.0264983
352 1 0.35597 0.238582 0.0280761 0.258797 -3.35603 -0.145865 -0.300414 -0.15894
1946 1 0.322641 0.236057 0.0460903 0.18481 -3.33838 0.167782 -0.105556 -0.20931
346 1 0.331394 0.238509 0.00194499 0.0927938 -3.34759 0.0504626 0.152059 0.0344855
355 1 0.417151 0.214495 0.0105853 0.155746 -3.30394 0.153322 0.0882217 0.10908
351 1 0.384825 0.213957 0.0293477 0.233357 -3.33691 0.201895 -0.172574 0.109532
356 1 0.388434 0.238783 0.00911875 0.147655 -3.33214 -0.0649839 0.123499 0.148973
1954 1 0.413398 0.237635 0.0351128 0.247575 -3.34072 -0.0702046 0.00682711 -0.152378
360 1 0.445937 0.239064 0.0157118 0.261124 -3.29793 -0.350356 -0.161147 -0.148283
359 1 0.472577 0.213528 0.015903 6.57838 -3.36684 0.110773 -0.00838765 0.0514676
1957 1 0.440076 0.212324 0.0347606 0.294658 -3.28879 -0.130204 -0.0274786 -0.0854225
1958 1 0.468349 0.236176 0.0395015 0.530855 -3.28211 0.0236798 -0.0360903 0.119519
1961 1 0.496103 0.211201 0.0412319 6.9714 -3.3393 0.134398 0.0312139 0.00262451
364 1 0.504293 0.235594 0.0208072 7.93908 -3.32242 -0.58907 -0.022932 -0.0274819
363 1 0.514454 0.204256 0.0138993 7.51015 -3.3337 -0.0657896 0.0239803 -0.1702
368 1 0.543641 0.22694 0.0182095 7.10665 -3.32595 0.141324 -0.0533245 -0.185873
1965 1 0.538741 0.20242 0.0388319 7.47765 -3.30511 -0.00304156 0.198839 0.126148
371 1 0.608857 0.204427 0.00494612 0.37245 -3.29984 -0.0771706 0.117288 -0.246019
372 1 0.579388 0.227479 0.000882552 0.154132 -3.30477 0.0311414 -0.374153 -0.240498
1969 1 0.574293 0.203259 0.0218385 6.19292 -3.2884 0.0662214 0.0733037 -0.0685915
1970 1 0.603054 0.227033 0.026055 10.1488 -3.22942 -0.132807 0.0461673 -0.257964
447 1 0.573751 0.249396 0.0217178 6.91405 -3.28387 -0.153809 -0.125349 0.21133
375 1 0.669936 0.206417 0.00919435 1.308 -3.34866 -0.203892 0.278208 0.024135
376 1 0.638234 0.227874 0.00794406 7.56158 -3.32122 -0.201325 -0.0989234 -0.115191
1973 1 0.629226 0.204188 0.0321631 11.7065 -3.26489 0.241464 -0.117832 0.143021
455 1 0.668627 0.23471 0.0253052 6.42938 -3.24808 0.128844 0.0560659 0.163652
2053 1 0.634669 0.235881 0.0428529 10.0184 -3.2609 0.195483 0.142769 0.0190958
380 1 0.697902 0.210138 0.0304409 0.619985 -3.32549 -0.188519 -0.0582259 0.0268689
378 1 0.731629 0.209136 0.012343 0.367646 -3.31576 -0.160057 0.0855046 -0.0373687
459 1 0.724622 0.235217 0.0322673 0.497171 -3.32906 0.126896 0.106799 0.17461
457 1 0.701855 0.232051 0.00827877 5.60457 -3.23939 -0.146459 -0.0347498 -0.0269566
384 1 0.756653 0.211587 0.0356606 0.394297 -3.32249 -0.138379 -0.278875 0.410595
388 1 0.789087 0.210698 0.0176939 0.163578 -3.34505 0.0686346 -0.0444722 -0.0312065
463 1 0.785001 0.234569 0.0398538 0.155414 -3.33696 0.102579 0.0258323 -0.0780383
461 1 0.759027 0.234606 0.0154 0.404426 -3.32359 0.104698 0.115144 -0.265701
392 1 0.849775 0.211114 0.0246693 0.0577548 -3.34375 0.0526607 -0.0699806 0.0153234
467 1 0.81779 0.234566 0.021245 0.21927 -3.36099 0.190562 0.0980443 -0.0698489
1986 1 0.815486 0.210446 0.0417699 0.2554 -3.34865 0.0106778 0.148245 0.314994
469 1 0.853036 0.234208 0.00351667 0.144135 -3.35556 -0.0991058 0.153501 -0.125582
386 1 0.823796 0.210667 0.000693435 0.154374 -3.35214 0.0475271 0.0297752 -0.161101
390 1 0.883983 0.211894 0.00621216 0.117347 -3.34421 -0.0322435 -0.297596 -0.0625179
396 1 0.909906 0.211139 0.0315997 0.0911393 -3.34978 0.158473 -0.0151452 -0.0148726
471 1 0.87905 0.234572 0.0274763 0.0682435 -3.33751 -0.0513608 0.0731759 0.155196
473 1 0.91324 0.23476 0.0105014 0.22454 -3.33514 0.109114 0.116824 -0.226291
394 1 0.944321 0.21187 0.0139289 0.105009 -3.3592 -0.117306 -0.140513 -0.165275
400 1 0.969641 0.211139 0.0389581 0.166553 -3.33362 0.00174507 0.109841 -0.0695873
475 1 0.938786 0.235557 0.034983 0.0714718 -3.36582 0.0928675 -0.0674851 -0.0314439
479 1 0.998519 0.235588 0.0403312 0.617061 -3.33152 0.0163145 -0.00381429 0.368399
477 1 0.972412 0.234763 0.0167421 0.312795 -3.34056 0.0581876 0.311473 -0.101036
402 1 0.0453779 0.268311 0.0196503 12.837 -3.33743 -0.0952674 0.192487 0.0718601
481 1 0.0134274 0.293297 0.0168875 10.1328 -3.34153 0.161299 -0.070482 -0.0532483
478 1 0.00370637 0.260421 0.02104 8.11287 -3.28736 -0.0335252 -0.346701 -0.0250756
412 1 0.105512 0.27035 0.0264171 5.2514 -3.25712 -0.186919 -0.0754387 -0.00584577
406 1 0.0795221 0.269812 0.0026178 7.59086 -3.27905 -0.212607 0.10375 -0.0528258
487 1 0.0737126 0.293089 0.022869 4.93006 -3.3002 -0.0536768 -0.0937297 -0.000202364
415 1 0.174544 0.255285 0.0266401 9.19527 -3.3341 -0.046146 0.203793 0.0893267
416 1 0.144773 0.279809 0.0247739 7.65577 -3.31506 0.17577 -0.051932 -0.11312
413 1 0.149741 0.256858 0.00367466 9.93291 -3.32763 0.0463736 -0.0215771 -0.209852
420 1 0.179383 0.282254 0.00741383 0.103538 -3.30324 -0.130664 -0.024344 0.0248765
419 1 0.209676 0.260065 0.00950786 7.18237 -3.29108 -0.0533082 -0.275506 0.148059
2021 1 0.234076 0.258634 0.0350971 0.118471 -3.36224 -0.00858328 -0.112613 0.0110549
424 1 0.237979 0.283491 0.0145867 0.0567251 -3.34016 0.0909184 0.00296133 0.034444