ITEM: TIMESTEP
6500
ITEM: NUMBER OF ATOMS
32000
ITEM: BOX BOUNDS pp pp pp
2.6290235940372679e+00 7.8370976405957578e+01
-9.7410920692412617e-01 8.1974109206918797e+01
-9.7437731205685907e-01 8.1974377312052212e+01
ITEM: ATOMS id type xs ys zs c_csym c_peratom fx fy fz
8 1 0.0500213 0.02496 0.0251261 0.00641814 -3.34293 0.0405911 -0.0299732 -0.00415479
83 1 0.0252997 0.0500975 0.0251327 0.0106648 -3.34301 -0.0506597 -0.0257783 0.00237427
2 1 0.025083 0.0249328 9.84225e-05 0.00631287 -3.33487 -0.0323751 0.0221963 0.0430163
85 1 0.0500652 0.0498588 0.000221545 0.00980361 -3.33928 0.0133015 0.0717853 -0.0368023
12 1 0.10043 0.0250089 0.0249522 0.0300543 -3.33201 -0.132321 -0.0339267 0.071331
87 1 0.075008 0.0497986 0.0247123 0.0482658 -3.34513 0.00528171 0.0487466 0.201422
6 1 0.0751593 0.0248208 0.00028599 0.0127798 -3.34268 -0.0116888 -0.00252005 -0.0499156
7 1 0.0751035 -0.000226902 0.0250004 0.00882333 -3.35332 -0.021039 0.0398439 0.0121599
16 1 0.150279 0.0248634 0.0253627 0.0334248 -3.34418 -0.0619812 0.0318491 -0.11751
1693 1 0.150174 0.0499955 0.0499861 0.0116985 -3.34876 0.00196361 0.0544796 0.0167275
11 1 0.124919 -0.000276696 0.0250848 0.0161583 -3.32939 0.00164833 0.0364986 -0.002302
10 1 0.125002 0.0248661 0.000218606 0.0132205 -3.33989 0.0623842 0.0830649 -0.0132133
13 1 0.149902 -2.73837e-05 0.000355986 0.0116264 -3.35469 -0.000611587 -0.0433233 -0.0334967
20 1 0.200174 0.0249335 0.0253551 0.0221547 -3.33107 -0.0126901 0.00280833 -0.0904194
95 1 0.175537 0.0498707 0.0251216 0.0399082 -3.34322 -0.163559 0.116329 0.0258307
15 1 0.175382 0.000137264 0.0249756 0.0388429 -3.33642 -0.118984 -0.0254641 0.0616504
24 1 0.250185 0.025125 0.0249746 0.0194603 -3.34607 -0.0379257 -0.064829 0.00268405
99 1 0.225228 0.0498272 0.0251024 0.0233899 -3.339 -0.0895542 0.0571333 -0.00775878
1622 1 0.274753 0.0250088 0.0499816 0.016803 -3.3428 0.0278065 -0.0185763 -0.0129478
22 1 0.275038 0.024996 -0.000146202 0.00937832 -3.35172 0.00803516 -0.0488422 0.0263928
21 1 0.249646 -3.99758e-05 0.00020651 0.0214783 -3.34498 0.08923 0.025464 -0.102711
28 1 0.299849 0.0248535 0.0248894 0.0133449 -3.35344 0.0206631 -0.0157331 0.0127702
1626 1 0.325014 0.0248288 0.0500516 0.0142104 -3.34924 -0.0647955 -0.00485032 -0.00985973
26 1 0.325287 0.0245839 0.000403502 0.0377598 -3.35826 -0.0563736 0.086233 -0.0741027
27 1 0.324775 -0.000359906 0.0251198 0.021935 -3.32829 0.0303334 0.144558 -0.0693994
32 1 0.35018 0.0249425 0.0251042 0.0228505 -3.33946 -0.0695348 0.00368331 -0.0237111
111 1 0.374992 0.0501526 0.0250719 0.0169073 -3.35163 -0.0138599 0.0113582 0.0230686
1630 1 0.374725 0.0250425 0.0497243 0.0242273 -3.3432 0.0298183 -0.0718122 0.081087
109 1 0.349642 0.0500589 0.000470301 0.0388165 -3.34807 0.00820508 -0.0724244 -0.0778677
36 1 0.39981 0.0250612 0.0250842 0.0306559 -3.34385 0.0531198 -0.00943783 -0.0494078
1713 1 0.399842 0.0499317 0.0503065 0.0121247 -3.3449 0.0140593 0.0100182 -0.0441162
115 1 0.42508 0.0496656 0.0253295 0.0460087 -3.35581 0.00177816 0.105487 -0.0986377
40 1 0.44999 0.0247495 0.0247863 0.0172252 -3.34184 0.00754936 0.074293 0.0225221
119 1 0.474778 0.0498697 0.0250119 0.0175958 -3.34221 0.0646428 0.0200767 -0.0239735
1637 1 0.450159 -1.73713e-05 0.0497276 0.0167859 -3.34018 -0.112963 -0.0224056 0.0502108
38 1 0.475245 0.024952 -3.92039e-05 0.0171836 -3.34693 -0.0309244 -0.00840012 -0.0543921
39 1 0.474957 -9.19589e-05 0.024779 0.00943883 -3.34106 0.0684823 -0.0225679 -0.0118574
37 1 0.449841 0.000118322 3.47063e-06 0.0220186 -3.3474 -0.00381881 -0.0645352 -0.0395178
44 1 0.499914 0.0248199 0.0247727 0.00683304 -3.3463 0.0103175 0.00234513 0.0205096
48 1 0.54964 0.0250421 0.0253045 0.0445805 -3.34083 0.0721241 0.077519 -0.198271
43 1 0.525006 -0.000195344 0.0245399 0.0244721 -3.33354 -0.0314944 0.0216845 0.0805087
1645 1 0.549857 0.000172101 0.049744 0.0329477 -3.34468 0.0273038 -0.0540881 0.106788
1646 1 0.574983 0.0247095 0.0496661 0.0471264 -3.34308 -0.0236869 0.0954648 0.0974036
52 1 0.600043 0.0251167 0.02504 0.0173817 -3.35115 -0.0235194 0.0324352 -0.0631106
1729 1 0.6002 0.0498893 0.0497497 0.0163847 -3.34524 -0.0317718 0.0219946 0.0384913
129 1 0.600394 0.0500933 -0.000169423 0.0363166 -3.35048 -0.0999559 -0.109806 0.0540175
47 1 0.574609 5.50018e-05 0.0248126 0.0256049 -3.34751 0.137731 -0.035603 0.00469964
56 1 0.649811 0.0248022 0.0250088 0.0138877 -3.35026 0.0208316 0.0456022 -0.0510456
1733 1 0.649926 0.0498452 0.0496596 0.0222982 -3.34202 0.134657 0.0534544 0.0327687
51 1 0.624644 7.54927e-05 0.0249491 0.0208541 -3.34233 0.0774718 -0.0634383 -0.0209391
135 1 0.675217 0.0499435 0.0247374 0.00816313 -3.34287 -0.0358289 -0.00512192 0.0159186
60 1 0.700086 0.0252382 0.0250002 0.0165083 -3.34525 -0.0202684 -0.0873454 -0.082757
1737 1 0.699883 0.0498639 0.0497175 0.0242764 -3.3382 0.0299702 0.0724663 -0.00178756
55 1 0.675027 3.18214e-05 0.0248456 0.00813725 -3.35548 0.0588857 -0.0291541 -0.0170758
139 1 0.725276 0.0498011 0.0250521 0.0357564 -3.33944 -0.0233401 0.105659 -0.0711835
64 1 0.7502 0.0252352 0.0248641 0.0130814 -3.34735 -0.0208291 -0.0811683 0.0772751
143 1 0.775014 0.0499283 0.0249885 0.0160196 -3.3461 -0.0057959 0.115522 -0.0220663
1662 1 0.775406 0.025177 0.0498961 0.0271794 -3.3444 -0.104967 -0.0300668 -0.0361109
1661 1 0.750251 0.000126231 0.0499388 0.0105967 -3.36041 0.00308316 0.0166397 -0.0653208
59 1 0.725097 0.000270701 0.0248069 0.0128573 -3.3465 -0.0398908 -0.0226238 0.0628674
61 1 0.750167 0.000116349 7.00566e-05 0.0148579 -3.33784 -0.0303979 0.0067568 -0.059134
68 1 0.799903 0.0250047 0.0245673 0.0360484 -3.33146 0.035178 0.0292326 0.132413
72 1 0.850253 0.0247215 0.0253235 0.0534908 -3.34049 -0.053477 0.17785 -0.0906234
151 1 0.87534 0.0501165 0.0248682 0.0215665 -3.3527 -0.0701513 0.00482896 0.0221811
71 1 0.875015 -0.000150152 0.0249522 0.0195203 -3.33967 0.0933202 0.0544746 0.0501052
70 1 0.875257 0.0249383 0.000471845 0.0418739 -3.35046 -0.0417886 0.0242208 -0.133946
76 1 0.900384 0.0251119 0.0251874 0.0290536 -3.3346 -0.0878996 -0.0797351 0.00273226
1674 1 0.924917 0.0248481 0.0499506 0.0118615 -3.34346 -0.00695589 -0.041173 0.0611055
1673 1 0.90013 -0.000246239 0.0500783 0.00876222 -3.34632 0.00190019 0.0898873 -0.00349874
75 1 0.924822 -0.000370757 0.0251277 0.0225097 -3.33676 0.0548831 0.0835121 0.0479706
73 1 0.900291 -7.12515e-05 1.0131e-05 0.00970843 -3.34258 -0.0638018 -0.0171475 -0.00914056
74 1 0.924911 0.0244363 0.000158883 0.0368232 -3.33572 0.0786383 0.129308 -0.0254031
4 1 0.999939 0.0249255 0.0250942 0.00923804 -3.34709 0.0706596 0.0470675 0.0214409
80 1 0.949807 0.0249359 0.025053 0.0124145 -3.34479 0.0203156 -0.0687647 0.0205306
1678 1 0.974916 0.0250813 0.0499803 0.0127398 -3.33911 -0.030918 -0.027617 -0.0063069
79 1 0.975061 -0.00011179 0.0250374 0.00884413 -3.3454 -0.0285782 0.0335615 0.0185805
78 1 0.975221 0.0250546 0.000387745 0.0136475 -3.34179 -0.0534619 -0.0263274 -0.0538692
88 1 0.0503309 0.0748831 0.0254201 0.034185 -3.34954 -0.0555415 0.0453828 -0.101846
163 1 0.0251342 0.10022 0.0250155 0.0196831 -3.3451 0.0116577 -0.087395 0.0185742
1682 1 0.0250671 0.0750743 0.0500206 0.012638 -3.33522 0.00216346 -0.0476559 0.0126199
165 1 0.0501069 0.100009 1.44766e-05 0.00772291 -3.34546 -0.0601153 -9.58622e-05 0.0346939
92 1 0.100312 0.0749112 0.0247227 0.0328028 -3.34968 -0.0464367 0.0401574 0.144658
167 1 0.0750934 0.100154 0.0250955 0.00707887 -3.34884 0.0580742 -0.0373334 -0.0491359
89 1 0.0998791 0.0502885 0.000393454 0.0727616 -3.33807 0.0869391 -0.120366 -0.144509
169 1 0.100455 0.0999694 -0.000142176 0.0334483 -3.34513 -0.0805991 0.0467684 -0.0129631
86 1 0.0751399 0.07541 0.000168052 0.0419765 -3.33724 -0.00965513 -0.0759591 -0.0127417
91 1 0.125119 0.0496918 0.0249202 0.0325427 -3.34499 0.0468367 0.142829 0.0353552
93 1 0.150157 0.0502167 0.00032164 0.0332283 -3.34708 0.0206426 -0.0463574 0.0113734
96 1 0.149853 0.0753709 0.0250804 0.0394037 -3.35306 0.0346962 -0.177648 0.0134184
171 1 0.124806 0.100025 0.0248011 0.0182357 -3.34303 -0.0334451 0.0505238 0.0732946
173 1 0.149802 0.0995335 -1.78599e-05 0.0666523 -3.34651 0.0550439 0.139693 -0.0556051
1773 1 0.149668 0.100163 0.0496859 0.0380252 -3.33732 0.00545915 -0.0450718 0.0942674
100 1 0.200272 0.074903 0.0252155 0.0186494 -3.34556 -0.0545756 0.061433 -0.00321665
175 1 0.175037 0.100058 0.0250695 0.0135161 -3.34865 0.0649637 -0.00818305 -0.0381579
177 1 0.199935 0.100412 -2.03029e-05 0.0338363 -3.35339 -0.052412 -0.0630559 0.011984
97 1 0.200085 0.050021 0.000368864 0.0147744 -3.34094 0.0210695 -0.0190893 -0.0826622
94 1 0.175265 0.0750987 0.000373499 0.0351571 -3.34649 -0.0471953 0.016403 -0.0656122
103 1 0.275406 0.049843 0.0247214 0.036079 -3.34391 -0.0721619 0.0370841 0.0414952
104 1 0.250018 0.0749142 0.0249686 0.00768408 -3.34432 -0.0145035 -0.0243884 0.0269957
179 1 0.225015 0.0999977 0.0249663 0.0102912 -3.34524 -0.0221366 0.0361829 0.024472
1781 1 0.250178 0.099964 0.0497825 0.0185094 -3.35024 -0.0204562 -0.0845911 0.10096
183 1 0.275 0.0993955 0.0250133 0.0397503 -3.33268 0.016218 0.128472 -0.0339774
98 1 0.225032 0.0752546 0.000144273 0.0223722 -3.33643 -0.0749146 -0.0824757 -0.00119834
181 1 0.249852 0.099778 -0.000137533 0.0172203 -3.34271 0.0380498 0.085874 0.0259801
1705 1 0.299881 0.0497444 0.0501268 0.00989816 -3.32945 0.0625904 -0.0192695 -0.0482525
107 1 0.324788 0.0499944 0.0256143 0.0567554 -3.34305 -0.00562875 -0.043273 -0.170332
108 1 0.300024 0.0749513 0.0248886 0.0165144 -3.33942 0.0231151 -0.0581746 0.0257032
1785 1 0.299981 0.099595 0.049727 0.0261979 -3.3541 0.0350936 0.0755818 0.112766
1706 1 0.325062 0.0747489 0.0502709 0.0158787 -3.34052 -0.0407134 0.0712498 -0.0557434
112 1 0.349679 0.0752959 0.0251989 0.0326429 -3.34777 0.0932919 -0.0973176 0.0627069
191 1 0.375256 0.099861 0.0249426 0.0269509 -3.34744 -0.0563813 0.0393863 -0.0120434
116 1 0.399897 0.0748532 0.0254711 0.0328649 -3.33741 0.0357854 -0.0316276 -0.119675
1793 1 0.399791 0.099685 0.0500518 0.0207989 -3.33562 0.115514 0.0981244 0.029364
195 1 0.424886 0.0995758 0.0250973 0.0238276 -3.35108 0.019938 0.0822549 0.0571556
1714 1 0.424946 0.0751175 0.0502917 0.0167074 -3.34723 0.0578042 -0.0590938 -0.0297979
114 1 0.425008 0.0752075 0.000203915 0.0361232 -3.33461 0.00907961 -0.106622 -0.0308378
120 1 0.450144 0.0747812 0.0252569 0.0202459 -3.34878 -0.0208541 0.0542607 -0.0242856
199 1 0.474959 0.100259 0.02552 0.0466215 -3.33935 -0.0160172 -0.0901708 -0.147411
1718 1 0.475248 0.0750326 0.0501981 0.0205049 -3.34604 -0.0207014 -0.0343466 0.00539711
1721 1 0.500034 0.0498939 0.0496892 0.0148917 -3.34229 -0.069491 0.0100912 0.0747687
123 1 0.524798 0.0501989 0.0250829 0.0170734 -3.34002 0.0353818 -0.071078 -0.0903458
124 1 0.499918 0.0750575 0.0248171 0.0144634 -3.34725 -0.0333353 -0.000489701 0.0232595
128 1 0.549626 0.0752272 0.0247977 0.0329522 -3.33601 0.115445 -0.0193702 0.0462634
1805 1 0.550272 0.0999528 0.0501306 0.0346148 -3.34862 -0.0273579 -0.022161 -0.0603911
127 1 0.574877 0.0502288 0.0250651 0.0265981 -3.35797 -0.0101605 -0.107407 -0.0888686
1726 1 0.574936 0.0746362 0.0496551 0.0406692 -3.34284 -0.0324982 0.0945362 0.0575512
132 1 0.599869 0.0751761 0.0247348 0.0181737 -3.33959 0.0271088 -0.0382283 -0.00643659
1809 1 0.599799 0.0996904 0.0496275 0.0379378 -3.3465 0.0284959 0.0746951 0.0943903
131 1 0.625087 0.0502794 0.0251293 0.0329158 -3.3337 -0.0714372 -0.124457 -0.0862063
133 1 0.649897 0.0498962 0.00021785 0.0241175 -3.34423 -0.0112438 -0.0352936 -0.0804672
211 1 0.624827 0.0998902 0.0248047 0.0139632 -3.3541 0.0929237 0.0487137 -0.0159245
1730 1 0.625371 0.0751307 0.0497694 0.0292411 -3.34657 -0.0556226 -0.00159847 0.0301321
136 1 0.650023 0.0746901 0.0246869 0.0319614 -3.34136 0.0718629 0.149173 0.0231046
215 1 0.67523 0.0999243 0.0251657 0.0320347 -3.34877 0.0171838 -0.00249604 -0.152774
1734 1 0.675356 0.0752524 0.0497135 0.0277677 -3.35078 -0.0771558 -0.0868996 0.00558851
140 1 0.700269 0.074978 0.0246333 0.0172251 -3.33876 -0.0566603 -0.0142273 0.0750172
1741 1 0.750025 0.0501544 0.0499303 0.0102253 -3.34128 0.087913 -0.0411886 -0.0336478
1738 1 0.725191 0.0749245 0.0495624 0.0246315 -3.34672 -0.0608527 0.032005 0.0816599
144 1 0.750293 0.07528 0.0249287 0.0142643 -3.34515 -0.0130192 -0.0572234 -0.0184563
1742 1 0.775098 0.0753155 0.0499548 0.0191316 -3.34611 -0.0195378 -0.0550291 0.0175934
138 1 0.724959 0.0752525 0.000207305 0.0355151 -3.33405 0.0645625 -0.0544808 -0.107703
147 1 0.825021 0.050096 0.0251929 0.0139955 -3.35559 0.0784526 -0.0173972 -0.0709489
148 1 0.800142 0.0753251 0.0252758 0.0242564 -3.3435 -0.0694647 -0.0686026 -0.133713
227 1 0.825133 0.0999642 0.0253192 0.0183456 -3.34469 0.0425581 0.0202998 -0.105437
1746 1 0.824875 0.0746781 0.0500578 0.0369855 -3.33243 0.0784242 0.0880582 0.00669667
146 1 0.825434 0.0748422 0.000247138 0.0359397 -3.34652 -0.0835995 0.0498459 0.00304097
152 1 0.850525 0.0751366 0.0252255 0.0367081 -3.34899 -0.095342 -0.0753226 -0.0603605
231 1 0.875116 0.100058 0.0249214 0.00818556 -3.33549 0.0248382 -0.00654215 0.0419419
229 1 0.850123 0.0999051 -7.51298e-05 0.0276175 -3.33783 -0.0750094 0.0608265 0.124906
150 1 0.875111 0.0751653 -9.28655e-05 0.0154762 -3.34524 0.00843729 -0.118109 0.0880428
155 1 0.924872 0.0500027 0.0252228 0.0141065 -3.33303 -0.0248817 0.00144287 -0.0403686
1753 1 0.899815 0.0502671 0.0503673 0.0474307 -3.33876 0.085498 -0.0333437 -0.126627
156 1 0.900351 0.0750561 0.0251046 0.0138048 -3.35162 -0.0447685 -0.00485908 -0.0698165
1754 1 0.925182 0.0752205 0.0503197 0.0274704 -3.34281 0.0142484 -0.0543077 -0.0107308
159 1 0.974954 0.049864 0.0255494 0.0319282 -3.34705 0.0358542 0.0635028 -0.0844328
1757 1 0.949403 0.0497213 0.0499833 0.0571722 -3.34218 0.159046 0.0734601 0.0977672
84 1 1.00019 0.0750481 0.0252123 0.0100384 -3.35265 -0.0380468 -0.0450588 -0.0199923
160 1 0.949831 0.0746497 0.0251825 0.020308 -3.33718 0.0833384 0.0446956 0.0098109
1758 1 0.974902 0.075046 0.0503412 0.0228607 -3.35232 0.0502269 -0.1088 -0.0230792
237 1 0.950217 0.099866 0.00036972 0.00849618 -3.34609 0.0260305 0.00392151 -0.0822091
81 1 1.00016 0.0499952 0.000233205 0.0121572 -3.34411 -0.0134849 0.0110267 0.043226
1761 1 0.000346338 0.0998613 0.0504544 0.016596 -3.34119 -0.0479878 0.0326357 -0.106259
162 1 0.0249469 0.124862 0.000163795 0.0124732 -3.34035 0.0553411 0.0177579 -0.0367284
168 1 0.050203 0.125016 0.0250801 0.00966456 -3.34534 -0.0246575 0.0433945 -0.0108972
243 1 0.0252655 0.14992 0.0253237 0.0153643 -3.3519 -0.0260932 -0.00677172 -0.0302504
1762 1 0.0251743 0.125104 0.0503958 0.0155921 -3.34367 0.0189683 -0.0341554 -0.068165
164 1 0.000331402 0.124931 0.0251753 0.0156043 -3.3474 -0.0858639 -0.0197792 0.0555149
172 1 0.0998486 0.125519 0.0246094 0.0411223 -3.34485 0.0501247 -0.0775604 0.0657065
1766 1 0.0751345 0.124823 0.0498181 0.0347445 -3.33527 -0.0444017 0.0884699 0.0709373
166 1 0.0750216 0.125204 -0.000158746 0.00558233 -3.34665 -0.00937084 -0.000372015 0.0356684
249 1 0.099854 0.150339 -0.000320794 0.0190199 -3.33702 -0.0163975 -0.0602846 0.0635896
176 1 0.150045 0.124782 0.0250689 0.03885 -3.33651 -0.102172 0.0874082 -0.064817
251 1 0.125091 0.150542 0.0246483 0.0469731 -3.3462 -0.0305903 -0.131747 0.126574
253 1 0.149889 0.150261 0.000134002 0.0141266 -3.33837 0.0575306 0.0236459 -0.0716072
170 1 0.125036 0.125305 0.000133476 0.0269935 -3.3477 0.0372568 -0.064761 -0.0550747
180 1 0.200085 0.125291 0.0250368 0.0178015 -3.35049 -0.0624032 -0.0638363 -0.0340177
255 1 0.174778 0.149781 0.02495 0.0379925 -3.34821 0.0274391 0.118389 0.00793643
1774 1 0.174711 0.12502 0.0497453 0.0234377 -3.33629 0.100244 0.0271906 0.0647809
174 1 0.174335 0.125247 -0.000281437 0.0726925 -3.34269 0.139106 -0.118601 0.102031
257 1 0.199846 0.150092 1.71437e-05 0.0196086 -3.35276 0.03425 -0.0162823 -0.0192744
184 1 0.250491 0.124618 0.025052 0.0520482 -3.33685 -0.13539 0.0522188 -0.0317417
259 1 0.225313 0.149763 0.0251273 0.034209 -3.34005 -0.0349934 0.029806 -0.0131719
263 1 0.274925 0.149858 0.0251569 0.0107779 -3.34642 0.0559501 0.0497601 -0.0784574
1782 1 0.275005 0.124738 0.0499636 0.00871456 -3.33623 0.0425156 -0.0237702 0.0594842
178 1 0.225072 0.124985 2.36975e-05 0.0123241 -3.3487 0.00347029 -0.0134738 -0.00583296
182 1 0.274725 0.125108 0.000171946 0.0225573 -3.34681 0.0337743 -0.0391782 0.00241237
187 1 0.324775 0.0999194 0.024825 0.0261845 -3.33553 0.00286413 0.04175 0.126364
188 1 0.299965 0.125151 0.0252683 0.0370019 -3.34225 -0.0660664 -0.120305 -0.0288618
267 1 0.324823 0.149597 0.0249814 0.029706 -3.34439 0.0935932 0.118323 0.0487755
1786 1 0.325166 0.12514 0.0501048 0.0324143 -3.34555 -0.0671513 -0.108052 0.00597544
186 1 0.324631 0.124704 0.000163973 0.0112292 -3.33602 0.00754153 0.0298557 -0.0373959
1789 1 0.349996 0.100123 0.0501449 0.0292691 -3.34848 -0.00364624 -0.0833142 -0.0329635
192 1 0.349966 0.124797 0.0249414 0.00972827 -3.35213 0.0537501 -0.001486 0.00335409
1790 1 0.375119 0.124372 0.0501692 0.0414317 -3.34103 -0.0223933 0.102562 -0.0554027
190 1 0.37517 0.125011 -0.000421703 0.0485596 -3.34931 -0.0569351 -0.107937 0.0937926
196 1 0.400199 0.124899 0.0248463 0.0313153 -3.34519 -0.0637548 -0.063087 0.0271637
1873 1 0.399493 0.149467 0.0498725 0.0730466 -3.34996 0.108097 0.0998121 0.0723552
275 1 0.425057 0.149774 0.0252771 0.0195127 -3.33919 -0.00337781 0.0380896 -0.0890505
1794 1 0.425058 0.125055 0.0502036 0.0135384 -3.35572 -0.0355446 -0.0895101 0.00739996
1797 1 0.45039 0.100013 0.0502464 0.0256542 -3.34328 -0.162231 -0.00798023 -0.034155
200 1 0.449988 0.124842 0.0251585 0.0120917 -3.34085 -0.0237578 0.0315362 -0.0237809
279 1 0.474843 0.150082 0.0249183 0.0182676 -3.35202 0.00994081 -0.0487465 0.0291022
1881 1 0.499957 0.149796 0.0498924 0.0154909 -3.34837 -0.019133 0.00656377 0.0700583
203 1 0.524832 0.100049 0.024971 0.0112942 -3.33758 0.0314244 -0.044261 -0.0257618
204 1 0.500119 0.124837 0.0249761 0.0175614 -3.33992 -0.0866922 0.0881344 -0.00633646
1802 1 0.525055 0.124846 0.0495724 0.0269895 -3.34382 -0.00031038 0.0357748 0.115684
208 1 0.55005 0.124647 0.0248241 0.0223861 -3.33955 0.0219566 0.103381 0.0272233
207 1 0.575086 0.100283 0.0248228 0.0298659 -3.34159 -0.00870836 -0.135912 -0.0207864
212 1 0.599844 0.12496 0.0249241 0.00878966 -3.339 0.062616 -0.00840568 0.00919002
206 1 0.575305 0.124958 -0.000303671 0.019845 -3.34078 -0.0856198 0.0387086 0.0691477
216 1 0.65057 0.124927 0.0248513 0.0338325 -3.34964 -0.122173 -0.0226096 -0.0283242
1893 1 0.65022 0.149588 0.0494227 0.0539897 -3.3396 -0.0331814 0.0909017 0.0873907
210 1 0.624843 0.12477 -1.52788e-05 0.0344134 -3.34654 0.132602 0.0597058 0.018455
1814 1 0.67566 0.125372 0.0497408 0.0627466 -3.32918 -0.118855 -0.119809 0.0812965
220 1 0.700147 0.124921 0.0251138 0.0236399 -3.34908 -0.0123346 0.0449957 -0.123236
1897 1 0.700413 0.149968 0.05001 0.0231592 -3.34107 -0.00579594 0.0393595 -0.0228569
219 1 0.72501 0.100002 0.0247429 0.0152427 -3.34089 0.0308832 0.0434304 0.0352045
223 1 0.775185 0.100446 0.0251307 0.0176281 -3.35106 0.0519013 -0.0467439 -0.0634977
299 1 0.724977 0.149863 0.0250217 0.0155281 -3.34313 0.047895 0.0292885 -0.0439431
1818 1 0.725647 0.124872 0.0498455 0.0425773 -3.34026 -0.11055 0.0651375 0.0825662
224 1 0.750149 0.125237 0.0245472 0.0361389 -3.33958 -0.00768695 -0.0271425 0.0738616
303 1 0.775448 0.149962 0.0249166 0.0375652 -3.34555 -0.120924 0.0790449 -0.0686187
1822 1 0.775004 0.125001 0.0501948 0.0387728 -3.34289 0.0114743 -0.019216 -0.0571036
1901 1 0.750169 0.150078 0.0497794 0.01599 -3.34921 0.0292298 0.0207788 0.0654555
228 1 0.800361 0.12525 0.0250268 0.0163694 -3.3366 -0.0165643 -0.0633329 -0.0111314
1905 1 0.800055 0.14974 0.0494158 0.0805105 -3.34329 0.11052 0.118867 0.144652
226 1 0.825096 0.125159 0.000207469 0.0186676 -3.34163 0.0902768 0.00908908 0.00454191
1829 1 0.850029 0.10008 0.0498222 0.0229913 -3.33964 0.0199644 -0.022979 0.0994905
232 1 0.850258 0.125056 0.0253281 0.0179069 -3.34692 -0.0237801 0.0302862 -0.0717286
235 1 0.925312 0.0998212 0.0250978 0.0160722 -3.34057 -0.0142161 0.0196842 0.0424896
1833 1 0.900349 0.100065 0.0500233 0.0103291 -3.34073 0.0161889 0.0244333 -0.000943315
236 1 0.900152 0.124773 0.0249364 0.0220471 -3.33775 -0.0342909 0.079781 0.101385
315 1 0.925274 0.149917 0.0251936 0.00906578 -3.34799 0.0139202 -0.00961045 0.0184189
1834 1 0.925053 0.125052 0.0500529 0.0321197 -3.34564 0.0941581 -0.0526943 0.027518
313 1 0.900104 0.149946 0.000237728 0.00690447 -3.35067 -0.00994776 0.0069955 -0.0329967
239 1 0.975167 0.0994668 0.0253103 0.0213552 -3.34687 0.0278783 0.0700822 -0.00229048
1837 1 0.950351 0.0997491 0.0504699 0.0195611 -3.34177 -0.0820663 0.0431608 -0.0321104
240 1 0.950426 0.124473 0.0253728 0.0329343 -3.34511 -0.0256535 0.105653 0.020025
1838 1 0.97524 0.124579 0.0504531 0.0126782 -3.33983 0.0194347 0.0423101 -0.0674322
1917 1 0.950575 0.14996 0.0502958 0.0320677 -3.35024 -0.0749832 -0.0733341 -0.0177814
238 1 0.975217 0.124714 0.00032947 0.0104849 -3.33528 -0.062734 0.0569934 -0.0061315
248 1 0.0503434 0.174969 0.0249212 0.0223517 -3.33042 -0.0314914 0.0148816 0.0286553
1842 1 0.0253209 0.17478 0.0499886 0.0223954 -3.34359 -0.0638773 -0.0161395 0.0448988
1925 1 0.0498129 0.199695 0.0500637 0.0406723 -3.33618 0.135831 0.0936797 0.00747856
242 1 0.0253332 0.174825 0.000199043 0.0195007 -3.34087 -0.144428 0.070751 -0.0268618
325 1 0.049899 0.200295 0.000207379 0.0263204 -3.35757 0.048828 -0.0348153 -0.00728342
247 1 0.0750169 0.150356 0.0249204 0.0136324 -3.34573 -0.0205857 -0.0770911 -0.0085307
252 1 0.100057 0.175274 0.0250172 0.00587221 -3.33847 0.0230044 -0.0118499 0.00139937
327 1 0.0752706 0.200076 0.0252422 0.013205 -3.34971 -0.0350812 0.0208519 -0.0302522
1929 1 0.10039 0.199895 0.0504048 0.0345958 -3.3481 -0.0184887 0.0637593 -0.0889474
329 1 0.0998097 0.200374 -0.000129247 0.0275023 -3.3518 0.0277125 -0.0287883 0.053795
246 1 0.0753133 0.175231 -9.66633e-05 0.026495 -3.34627 -0.113543 0.00900845 0.0175524
256 1 0.149818 0.175284 0.024902 0.01092 -3.34592 0.00227825 -0.0263138 -0.00770331
331 1 0.124939 0.200343 0.0249567 0.0163765 -3.35035 -0.000244727 -0.0936969 0.0135809
250 1 0.124902 0.17507 -0.000116588 0.0166653 -3.34286 6.42514e-05 0.12797 0.028993
260 1 0.200483 0.174724 0.0250608 0.0749131 -3.34767 -0.135992 0.0607115 -0.0346132
335 1 0.174864 0.199794 0.0249992 0.0292696 -3.34452 0.0644146 0.0439839 -0.0445148
1937 1 0.19978 0.200037 0.0496743 0.0273712 -3.34045 0.0144746 -0.0643972 0.0498114
254 1 0.175159 0.175386 2.68308e-05 0.0346869 -3.35446 -0.0287762 -0.110285 -0.0179211
1861 1 0.250288 0.149932 0.0500238 0.0148417 -3.34073 -0.0826944 0.00448104 0.0202257
264 1 0.250016 0.174792 0.0250253 0.00869781 -3.3435 -0.0642851 0.0192427 -0.0235895
339 1 0.225148 0.200024 0.0247738 0.0186197 -3.35421 -0.0223421 0.00919157 -0.0242036
1941 1 0.249994 0.199736 0.0502012 0.0208491 -3.3456 0.0988995 0.0149442 -0.0612599
343 1 0.274776 0.199637 0.0248815 0.0307671 -3.33892 0.036785 0.0671076 0.0681325
261 1 0.249486 0.15001 -6.81152e-05 0.0508039 -3.34454 0.0994205 0.0201958 0.0155236
268 1 0.30027 0.175133 0.0251545 0.0386442 -3.34487 -0.0563684 -0.104926 -0.0871044
347 1 0.325103 0.200081 0.0249489 0.00931495 -3.34176 0.00650287 -0.0550378 -0.000382833
1866 1 0.324921 0.174781 0.0497295 0.0246933 -3.34677 0.0599713 0.01886 0.0213334
266 1 0.325318 0.175044 0.000165313 0.0276281 -3.34421 -0.0971035 -0.0428197 -0.0316034
271 1 0.374919 0.149787 0.0247626 0.0138486 -3.33736 0.0298035 -0.0391733 0.0018012
269 1 0.349905 0.149636 -0.000187429 0.0164126 -3.34792 -0.00541422 0.0427795 0.0140746
272 1 0.350257 0.17465 0.0248173 0.0213473 -3.34477 -0.0875444 0.0535072 0.062441
351 1 0.374995 0.199883 0.0248165 0.00857096 -3.34194 -7.21973e-05 -0.0389762 -0.004817
1870 1 0.37509 0.174874 0.0498569 0.0100711 -3.34244 -0.0675765 0.0104735 0.0410999
270 1 0.37482 0.175082 -0.000213419 0.0177507 -3.35207 0.0431881 -0.0670093 0.0429898
349 1 0.349829 0.200035 -0.000121339 0.0107593 -3.3389 0.0827291 0.0236993 0.0406722
273 1 0.400032 0.149839 -2.80136e-05 0.00611615 -3.34707 0.0461504 0.0513374 0.0248995
276 1 0.400063 0.174694 0.0251706 0.0221544 -3.35213 -0.0299056 0.0153343 -0.081999
355 1 0.424573 0.199646 0.0248903 0.0382126 -3.34359 0.0318889 0.0759904 0.032257
1874 1 0.425268 0.174934 0.0501805 0.0368911 -3.33712 -0.202913 -0.0382589 -0.0160478
1877 1 0.449907 0.150123 0.0499696 0.0112001 -3.34446 0.0853939 -0.0177102 0.0681977
280 1 0.449803 0.174997 0.0253223 0.0311396 -3.34297 0.0437683 -0.0212233 -0.0748788
1957 1 0.449813 0.199875 0.0498724 0.011645 -3.34302 0.0696467 0.026857 0.0299924
359 1 0.475017 0.199795 0.024851 0.0168229 -3.3533 0.0446107 0.00053267 0.081556
1878 1 0.475453 0.175387 0.0500268 0.0662225 -3.3498 -0.0974847 -0.123003 0.0015408
278 1 0.474886 0.174784 0.00015535 0.0236456 -3.33768 0.0381697 0.0936668 0.0366488
283 1 0.525113 0.149839 0.0249445 0.0122348 -3.33825 0.0541843 -0.00799989 0.014264
1885 1 0.550204 0.149937 0.0500746 0.00850874 -3.34757 -0.0499541 -0.0180472 -0.0162066
281 1 0.500232 0.150126 7.29724e-05 0.0161128 -3.34925 0.000122378 -0.0770819 -0.0429271
284 1 0.500396 0.174455 0.0249663 0.0786223 -3.34239 -0.079468 0.156303 -0.00517763
1961 1 0.500059 0.200195 0.0500508 0.0219163 -3.34147 0.0489333 -0.0364443 -0.0154273
1882 1 0.524718 0.174719 0.0501525 0.0261385 -3.34869 0.0530386 0.0586789 0.0170201
288 1 0.549944 0.175078 0.02535 0.0206651 -3.3532 -0.014722 -0.0625252 -0.064553
1965 1 0.549817 0.199909 0.0502325 0.013236 -3.34683 -0.0060538 -0.00384227 0.00369966
287 1 0.575026 0.149783 0.0250903 0.00776446 -3.34601 -0.0456579 0.0214319 -0.0468622
1889 1 0.599965 0.149788 0.0500889 0.0105907 -3.34266 0.0682898 0.0133695 -0.0459843
1886 1 0.575043 0.174806 0.0502916 0.00834735 -3.33143 -0.0306033 0.00850606 -0.0568687
292 1 0.599652 0.174785 0.025045 0.0166938 -3.34602 0.0471135 0.0510241 0.0132291
1969 1 0.59994 0.199685 0.0500404 0.0215876 -3.3479 0.0473819 0.0712656 -0.0151668
291 1 0.624764 0.149887 0.0246178 0.0299447 -3.35076 0.0870208 -0.025948 0.0816316
1890 1 0.625373 0.174635 0.0497079 0.0326173 -3.35049 -0.0406463 0.0642311 -0.0158539
296 1 0.650093 0.174961 0.0247757 0.0133844 -3.34215 -0.0369172 0.0368986 -0.0331961
1973 1 0.650431 0.200084 0.0494125 0.0457548 -3.35263 -0.126903 -0.0321106 0.0571073
295 1 0.675017 0.150475 0.0246542 0.0644827 -3.33582 0.13633 -0.140841 0.044321
1894 1 0.675052 0.175117 0.0497302 0.00985329 -3.3539 0.0203329 -0.0135555 0.000416076
300 1 0.700246 0.174945 0.0249215 0.0176263 -3.34242 -0.0249459 0.0721969 0.0577333
379 1 0.724869 0.200302 0.0252424 0.0181814 -3.33864 0.039765 -0.0553011 0.0137946
1898 1 0.725154 0.175081 0.0500152 0.0104097 -3.34421 -0.0351064 0.0225907 -0.00499783
304 1 0.75006 0.175133 0.0253014 0.0167338 -3.34821 -0.0259522 -0.0420586 -0.102984
383 1 0.774688 0.200146 0.0251339 0.0193177 -3.34252 0.0733911 0.0432528 -0.1007
298 1 0.724895 0.174963 4.69099e-05 0.00912838 -3.33808 0.086412 0.0339187 0.0221129
307 1 0.825521 0.150218 0.0247572 0.0315896 -3.35098 -0.0694405 0.017005 0.0816133
308 1 0.799994 0.17529 0.024899 0.011357 -3.34998 -0.00698957 -0.0268049 -0.0626459
387 1 0.825213 0.200243 0.024866 0.00728713 -3.34118 -0.0325263 -0.0153737 0.00498542
311 1 0.875354 0.150311 0.0251713 0.0187059 -3.35095 -0.0388601 -0.108155 -0.0154428
312 1 0.850477 0.175295 0.0249058 0.0174942 -3.33312 -0.12752 -0.0666042 0.0180368
391 1 0.874845 0.199966 0.0248774 0.0240619 -3.3342 0.0882808 0.0735376 -0.00257284
310 1 0.87523 0.175275 2.94464e-05 0.0170956 -3.3434 -0.0495753 -0.0665094 -0.0156647
316 1 0.900224 0.175072 0.0251054 0.00762638 -3.34071 0.0744127 -0.00589487 -0.0282505
395 1 0.925229 0.200271 0.0248022 0.0324614 -3.35555 -0.00175566 -0.0294693 0.069393
1993 1 0.900134 0.199657 0.049686 0.0571543 -3.356 0.0139236 0.153811 0.0655401
393 1 0.899927 0.200046 3.60498e-05 0.0110604 -3.33669 0.0424297 -0.0149513 0.0259569
319 1 0.975046 0.1497 0.0249864 0.0160432 -3.35034 0.0237088 0.0347858 0.0629835
244 1 1.00021 0.174755 0.0251169 0.0078542 -3.35002 -0.0597612 0.0160555 -0.0226977
320 1 0.949772 0.175015 0.0250973 0.0277704 -3.34242 0.0752868 -0.0141954 0.0261163
1918 1 0.975288 0.174874 0.0500173 0.0180106 -3.339 -0.0678893 0.0454112 -0.025649
323 1 0.0252385 0.199685 0.0253259 0.0255185 -3.3424 -0.0689065 0.0566532 -0.109343
328 1 0.0501641 0.224984 0.0252982 0.0170058 -3.34589 -0.00841174 0.00865405 -0.0531073
403 1 0.0250719 0.249942 0.0248448 0.0177848 -3.34253 0.0569177 -0.0539879 0.0864695
322 1 0.0248686 0.224958 4.26766e-05 0.0164617 -3.35048 0.029826 -0.069467 0.0291724
324 1 9.28707e-05 0.224665 0.0251966 0.0165659 -3.35333 -0.0612031 0.0164054 -0.0303476
401 1 0.000204109 0.249913 0.000215652 0.0139292 -3.34023 -0.0663385 -0.0166111 -0.0492665
332 1 0.100086 0.225123 0.0251074 0.0109087 -3.3363 0.0179773 -0.0363428 0.0302916
407 1 0.0753379 0.249877 0.0251584 0.0142962 -3.34064 -0.0955236 0.0451096 -0.0145765
2009 1 0.100051 0.250014 0.0500709 0.00757099 -3.34346 0.0413835 -0.0120671 -0.000457258
326 1 0.0750001 0.225469 0.00025666 0.0424731 -3.34522 -0.0666463 -0.107037 -0.0656573
336 1 0.150121 0.224921 0.0249121 0.0142673 -3.33246 0.0573085 0.0583989 0.0151393
411 1 0.125302 0.25001 0.0250997 0.0083034 -3.33983 -0.0332512 0.0548989 -0.0134131
1930 1 0.125479 0.225244 0.0498208 0.0377764 -3.34763 -0.118528 -0.0458655 0.0942528
2013 1 0.150236 0.250098 0.0498025 0.0144331 -3.33479 -0.0249284 -0.00272245 0.101767
340 1 0.199693 0.225206 0.0252435 0.0419444 -3.34174 0.0632621 -0.0652655 -0.147351
415 1 0.174967 0.250351 0.0250013 0.0153389 -3.34383 0.00520992 -0.0429206 -0.0748825
417 1 0.200152 0.250199 -3.79577e-05 0.0105533 -3.34582 -0.0144345 0.00219269 -0.0251658
344 1 0.250173 0.224747 0.0248388 0.00776251 -3.35038 -0.0428717 0.0682664 0.0383863
419 1 0.224957 0.249839 0.024999 0.0205808 -3.35721 0.0705298 0.0691872 0.0137021
423 1 0.275179 0.249785 0.0251956 0.0142633 -3.34619 -0.125898 0.0329661 -0.00197996
1942 1 0.275294 0.224486 0.049966 0.0370727 -3.3449 -0.103845 0.05273 0.0383013
338 1 0.224877 0.225279 -0.000308972 0.0388396 -3.34485 0.0517903 -0.0711007 0.103582