ITEM: TIMESTEP
11000
ITEM: NUMBER OF ATOMS
32000
ITEM: BOX BOUNDS pp pp pp
4.4516909076931048e+00 7.6548309092301736e+01
-1.8362034212064273e+00 8.2836203421200736e+01
-1.8377312426298786e+00 8.2837731242625395e+01
ITEM: ATOMS id type xs ys zs c_csym c_peratom fx fy fz
8 1 0.0495992 0.0248492 0.0250084 0.0281562 -3.31171 0.075415 0.0429851 -0.0672088
4 1 -5.68438e-05 0.0248596 0.0243462 0.0284699 -3.31153 -0.0236166 0.0222548 0.0793493
1602 1 0.0244773 0.024994 0.0495837 0.0366626 -3.2968 0.0460371 -0.0504433 0.0464601
85 1 0.0501188 0.0501313 -0.000235343 0.0301769 -3.3084 -0.082281 -0.0135878 0.0157009
83 1 0.0246867 0.0501388 0.0244024 0.0453936 -3.31008 -0.0537841 -0.0939594 0.0638844
1681 1 9.49386e-05 0.0498459 0.0499369 0.0231751 -3.30599 -0.0208595 -0.0133538 -0.0292195
1685 1 0.0493318 0.0495995 0.0498148 0.0439357 -3.30896 0.115613 0.0761227 -0.0472676
12 1 0.0998181 0.0251367 0.0245665 0.0210768 -3.30529 -0.0171918 -0.00374186 0.0906277
6 1 0.0747499 0.0252738 -3.62321e-05 0.022858 -3.32344 -0.00314839 -0.0723859 -0.0791762
87 1 0.074684 0.0500525 0.0249264 0.00744613 -3.31404 0.0210895 -0.00435388 -0.0284129
7 1 0.0749362 -5.02077e-06 0.0246567 0.0122883 -3.32465 -0.0720855 0.0236757 0.0627106
1609 1 0.0999877 1.60147e-05 0.049581 0.0222631 -3.31023 -0.0487217 0.0487814 0.0371775
16 1 0.149974 0.0253293 0.0250812 0.0142627 -3.31013 0.037689 -0.0566144 0.0122359
10 1 0.124909 0.0253194 8.51939e-05 0.0102159 -3.30874 0.068823 -0.0313933 -0.0498081
15 1 0.174877 -6.57046e-05 0.0249107 0.0217604 -3.29972 0.0766966 0.120635 0.015681
11 1 0.125026 0.00036816 0.0250308 0.0114808 -3.30934 -0.0308099 -0.026352 -0.0221846
14 1 0.174654 0.0249385 7.56201e-05 0.024063 -3.3142 0.0569939 0.0905207 -0.0146134
13 1 0.149978 0.000150819 0.000387455 0.0356752 -3.30383 -0.0821353 0.0219474 -0.139912
20 1 0.199646 0.025224 0.025051 0.0225268 -3.32683 0.0311224 -0.037127 -0.00454185
99 1 0.224951 0.0501071 0.0251313 0.00994593 -3.3144 -0.0126243 -0.0115215 0.0288088
18 1 0.225177 0.0254932 5.57256e-05 0.0329894 -3.31301 -0.11724 -0.150831 -0.0607028
24 1 0.249881 0.0249968 0.0250359 0.0128039 -3.32381 0.0633265 -0.0039855 0.0645683
1621 1 0.249798 6.57643e-05 0.0497362 0.0271768 -3.32759 0.0255439 0.0485634 0.0571973
103 1 0.275001 0.0498201 0.0252948 0.0190993 -3.31002 0.0256535 -0.0174175 -0.0878063
23 1 0.275167 7.91965e-05 0.0251688 0.023693 -3.3061 -0.0597445 0.000793699 -0.06771
22 1 0.275388 0.0249996 -2.02001e-05 0.0241029 -3.31804 -0.0758899 -0.000491337 -0.0280096
28 1 0.300001 0.0248466 0.0249508 0.0141121 -3.30822 0.0521744 0.0941099 -0.000557895
26 1 0.324975 0.0249276 0.000212121 0.0190437 -3.30745 0.0153524 -0.150832 0.0058341
32 1 0.350091 0.0251449 0.025188 0.0215109 -3.30576 0.0238738 -0.0128847 -0.0621738
25 1 0.299695 -0.000248987 -9.39249e-05 0.0312951 -3.31595 0.114169 0.0626053 0.012583
30 1 0.374879 0.0247717 0.000396468 0.0186009 -3.3038 -0.0594178 0.076972 -0.0413009
36 1 0.400015 0.024941 0.0250749 0.0132128 -3.31096 0.0234991 0.048549 0.0130882
111 1 0.375273 0.0501781 0.0249123 0.0247783 -3.32719 -0.084238 -0.00473866 0.085195
1713 1 0.400389 0.0503165 0.0501649 0.040475 -3.31895 -0.0858895 -0.0542561 -0.0637565
115 1 0.424981 0.0502889 0.0247307 0.043896 -3.31965 -0.017554 -0.0608139 0.0606495
34 1 0.424945 0.0253279 0.000202778 0.0395027 -3.33029 0.0900213 -0.086886 -0.0597029
40 1 0.450087 0.0250983 0.0254653 0.0406965 -3.31371 0.0271258 0.0128402 -0.146289
1634 1 0.4249 0.0252503 0.0498924 0.0285585 -3.30051 0.00179332 -0.0718657 0.0608655
117 1 0.450465 0.0499529 0.000117507 0.0263887 -3.31925 -0.0250423 0.0155686 -0.0410438
44 1 0.500087 0.025099 0.0252909 0.015347 -3.31187 0.00213891 -0.0267081 -0.0829475
123 1 0.525073 0.0498608 0.0251345 0.00418155 -3.31157 -0.00464978 0.0168172 -0.0290637
38 1 0.475038 0.0247955 -0.000269895 0.0444011 -3.32603 0.045659 -0.0264244 0.0872732
121 1 0.499803 0.049834 -1.69434e-05 0.0250529 -3.3243 0.0749091 0.0044995 -0.0134276
119 1 0.475123 0.0499902 0.0252155 0.00842573 -3.30172 -0.0402111 -0.0244649 -0.0277634
39 1 0.47527 0.000314769 0.0249526 0.0444047 -3.3268 -0.0476073 -0.0924784 0.0657785
1721 1 0.499916 0.0499238 0.050023 0.0104397 -3.30953 0.0252993 0.0141826 0.0661966
1638 1 0.475144 0.0250316 0.0502593 0.00851166 -3.31175 -0.0347558 -0.0682484 -0.00137777
1642 1 0.525439 0.0251623 0.0500989 0.0340595 -3.31137 -0.0983006 -0.0920728 0.103786
1641 1 0.500444 -6.12181e-05 0.0500323 0.0221994 -3.32718 -0.0681998 -0.0227779 0.0695256
48 1 0.550096 0.02507 0.0254981 0.0196969 -3.30358 0.0678013 -0.095307 -0.060766
127 1 0.57506 0.0495262 0.0254879 0.0477901 -3.32159 0.0890957 0.122589 -0.0527782
1646 1 0.575324 0.0249799 0.0504144 0.00919337 -3.31384 -0.0420027 -0.0197768 -0.0811953
47 1 0.575163 -0.000489658 0.0254922 0.042807 -3.3131 -0.00208765 0.108514 -0.0507377
46 1 0.575094 0.0247669 0.000416376 0.00915604 -3.3055 0.013184 0.0393286 0.0414634
45 1 0.550395 2.14723e-05 0.00074948 0.0458651 -3.30844 -0.0178869 -0.0668372 -0.0898983
52 1 0.600377 0.0246954 0.0252815 0.00972117 -3.32298 -0.0138258 0.000976123 -0.0533839
131 1 0.625177 0.0497905 0.0247424 0.0277986 -3.31076 0.0588687 0.0129289 0.102469
51 1 0.625506 -0.000257244 0.025054 0.0221888 -3.31038 -0.0413666 -0.0186911 -0.0299187
1649 1 0.600413 0.000177831 0.0498845 0.0489632 -3.30662 -0.0349288 -0.0883882 0.0948643
56 1 0.649984 0.0246306 0.0252024 0.0282775 -3.30149 0.0471398 0.12282 -0.0681151
60 1 0.700111 0.025153 0.024904 0.0217799 -3.31796 0.0356007 -0.0679242 0.118657
1657 1 0.69987 -0.000209158 0.0498929 0.0274532 -3.31195 -0.0214356 0.0479823 -0.0405803
57 1 0.700647 -0.000110505 0.000164915 0.0310064 -3.30701 -0.0314876 -0.0387645 0.0508332
1733 1 0.64998 0.0498417 0.0503668 0.0232234 -3.32086 -0.0011045 0.0482415 -0.0834799
64 1 0.750419 0.0249835 0.025118 0.0187281 -3.32415 -0.0522807 0.0161993 0.0415086
59 1 0.725312 -1.92363e-05 0.0251841 0.0168501 -3.31483 -0.0471225 0.0173028 0.0114787
1658 1 0.724961 0.0247103 0.0505418 0.0457621 -3.3194 0.0282092 0.0981833 -0.185669
1661 1 0.749943 4.50906e-05 0.050081 0.0278493 -3.3121 0.0652973 -0.037235 0.00665357
68 1 0.800144 0.0250015 0.0248027 0.00938749 -3.31819 -0.0987784 -0.016424 -0.00391705
63 1 0.775123 -0.000182655 0.0251642 0.0180727 -3.31654 0.0323751 0.0798596 -0.0674786
1665 1 0.800398 0.000358892 0.0497789 0.0467183 -3.31162 -0.0198072 -0.10227 -0.0241927
72 1 0.850207 0.0250312 0.0246617 0.0175215 -3.31535 -0.0547335 -0.0157127 0.0161096
71 1 0.874996 -0.000334008 0.0248864 0.0303552 -3.30541 0.0334364 0.0743761 0.0248295
69 1 0.850721 3.13209e-06 -0.000287023 0.0478385 -3.31089 -0.107266 -0.0133658 0.00746473
1666 1 0.825444 0.0251197 0.0495826 0.0350913 -3.31302 -0.00893378 -0.0326084 0.0526281
67 1 0.825278 -0.00015626 0.0243175 0.0550966 -3.31245 0.0415871 0.0795203 0.13313
1670 1 0.874906 0.0252442 0.049986 0.0205601 -3.30722 0.0244544 -0.113584 -0.0684713
1669 1 0.850244 0.00019928 0.0498412 0.0184432 -3.31195 -0.114457 0.0108398 -0.0390481
76 1 0.900308 0.0246155 0.0249631 0.0426645 -3.30807 -0.0897115 0.0520241 -0.0705181
1674 1 0.92473 0.024881 0.0495744 0.0214166 -3.31517 0.0535227 -0.00591999 0.139525
1753 1 0.899731 0.0498839 0.0496949 0.0159453 -3.30299 0.0680387 0.0182843 0.0902862
74 1 0.925508 0.025071 -0.000246694 0.0372837 -3.30866 -0.154905 -0.0695922 0.0307753
80 1 0.950018 0.0254665 0.0246574 0.0539208 -3.30163 -0.0388157 -0.105553 0.0515988
1678 1 0.974881 0.0251508 0.0495829 0.0229552 -3.31245 0.00516444 -0.0258741 0.0265665
79 1 0.974336 -4.49469e-05 0.0245377 0.0749339 -3.30892 0.144581 0.0597064 0.0496595
159 1 0.974994 0.0499091 0.024939 0.0168524 -3.31522 0.0534915 0.061186 -0.0375784
157 1 0.949936 0.0499298 -3.48109e-05 0.0177776 -3.31336 0.0183079 0.0688682 -0.0466127
88 1 0.0494348 0.074574 0.0252309 0.0577293 -3.31272 0.132133 0.167415 -0.0934266
82 1 0.0245568 0.0749587 2.95902e-05 0.0169111 -3.31497 0.0620136 0.0551584 -0.0606261
163 1 0.0246902 0.0999924 0.0251638 0.00904393 -3.31706 -0.0284014 -0.0269801 -0.048548
1765 1 0.0497773 0.0999539 0.0501111 0.0128495 -3.31546 0.000248945 -0.10077 0.0160101
92 1 0.100039 0.0749709 0.0245791 0.0424578 -3.32422 0.000785867 -0.0123654 0.0263646
86 1 0.0747559 0.0751006 -0.000178116 0.013265 -3.32088 0.0529761 0.0230612 0.0318234
89 1 0.100049 0.0501516 -0.000335414 0.0142956 -3.32554 0.0261062 0.105855 0.0779731
1686 1 0.0747755 0.0750046 0.0498739 0.0133991 -3.32475 -0.0104985 -0.0238383 -0.00205797
91 1 0.125036 0.0499873 0.0252054 0.0291266 -3.31496 -0.0562342 0.093323 -0.0864292
95 1 0.175053 0.0501868 0.0249979 0.0153885 -3.31453 -0.0316787 0.0297578 0.014061
93 1 0.149907 0.0501688 0.000194523 0.0123851 -3.31981 -0.0259141 0.022771 -0.0783295
96 1 0.149891 0.075296 0.0255016 0.0509966 -3.31523 -0.00226977 -0.0697584 -0.136569
175 1 0.174847 0.100015 0.0248735 0.0277256 -3.30489 0.0411539 0.0240705 0.13326
90 1 0.125538 0.0755674 -0.000253347 0.0830084 -3.32035 -0.142565 -0.147822 0.0546267
100 1 0.200001 0.0752594 0.0251336 0.0189331 -3.31408 0.0127098 -0.0298085 -0.0202204
1698 1 0.22499 0.0751331 0.0499308 0.010587 -3.31589 -0.00433827 -0.0571077 0.050755
98 1 0.225233 0.0747297 -6.35409e-05 0.0351826 -3.31725 -0.00142844 0.126712 0.0661795
104 1 0.250068 0.074986 0.0250704 0.00589185 -3.30425 0.0044283 -0.0444585 -0.0465458
183 1 0.275237 0.0997466 0.02504 0.0289412 -3.30777 -0.0992381 0.102523 0.00883054
102 1 0.274925 0.0749413 7.659e-05 0.00726075 -3.32017 0.0202692 -0.0242523 -0.0308567
107 1 0.325192 0.0502259 0.0248578 0.0333023 -3.31094 -0.0792098 -0.0440837 0.136207
108 1 0.299634 0.0744888 0.0250438 0.0642234 -3.30501 0.0587814 0.0769943 0.0275914
112 1 0.350339 0.0753164 0.0249259 0.0390007 -3.31951 -0.024538 -0.0645616 -0.00613379
187 1 0.324628 0.0998004 0.024816 0.0482739 -3.31042 0.116128 0.0334305 0.045383
106 1 0.324756 0.075082 0.000258906 0.0226694 -3.31647 0.00805456 0.0112235 -0.062868
185 1 0.299902 0.100229 0.000288675 0.0318477 -3.30603 -0.0131651 -0.0727871 -0.145025
191 1 0.375185 0.100325 0.0245734 0.0433465 -3.30628 -0.0365343 0.00474869 0.121762
116 1 0.39995 0.0753019 0.0250011 0.0261141 -3.31704 0.00260631 -0.0195764 0.0136607
120 1 0.450214 0.0749317 0.0251332 0.0108875 -3.31047 0.0203901 0.0287549 -0.0672682
1714 1 0.425332 0.0749544 0.0499023 0.0152808 -3.30702 0.00591971 0.0522848 0.0277246
197 1 0.450259 0.100276 9.75125e-05 0.0122678 -3.29877 -0.0682667 -0.113465 0.0639302
124 1 0.50008 0.0748025 0.0248603 0.0113191 -3.30912 0.0136779 0.0396852 0.0820256
203 1 0.525312 0.0997938 0.0246977 0.0177425 -3.30578 -0.0844417 0.0106379 0.100207
118 1 0.475236 0.0751802 0.000143063 0.0187504 -3.31161 -0.0148183 -0.041633 -0.0582045
122 1 0.524965 0.0750285 -9.31972e-06 0.0174646 -3.30741 -0.0238954 -0.101539 -0.0648298
199 1 0.475333 0.100119 0.0249898 0.00820779 -3.3138 -0.0262002 -0.00190635 0.032949
1718 1 0.474948 0.0749414 0.050078 0.00886907 -3.31936 0.040769 -0.0462399 0.0279666
1722 1 0.524786 0.0748979 0.0500167 0.014501 -3.31591 0.0696337 -0.0570311 -0.0256382
128 1 0.549889 0.0746325 0.0247289 0.0412207 -3.31557 0.0879276 0.0351449 0.138442
1726 1 0.574928 0.0749767 0.0500951 0.0178728 -3.32772 0.0308758 -0.0151849 -0.0360237
1729 1 0.600842 0.050059 0.050057 0.0732767 -3.32305 -0.138904 -0.0374295 0.0201938
132 1 0.600199 0.0748877 0.0252972 0.0243581 -3.30949 -0.0399093 -0.0444329 -0.00409985
211 1 0.624985 0.0996138 0.0251677 0.0287152 -3.32042 0.009092 0.105718 0.0254295
1730 1 0.62533 0.0749149 0.0499411 0.0291998 -3.31093 -0.0507178 0.0421418 0.0201059
135 1 0.67481 0.0499758 0.0251136 0.024732 -3.30859 -0.0163409 -0.0453127 0.0047206
137 1 0.699709 0.0503418 0.000102624 0.0566798 -3.30309 0.131444 -0.0605779 -0.00706074
133 1 0.64994 0.04976 5.62565e-05 0.0220289 -3.30823 0.159134 0.0682241 0.0352798
136 1 0.650376 0.0749843 0.0249072 0.02319 -3.31952 -0.0812534 0.0120708 0.0203243
140 1 0.700222 0.0746822 0.0250537 0.0376727 -3.31122 -0.0058209 0.116194 0.0088961
215 1 0.675207 0.100211 0.025395 0.0349576 -3.31854 0.0368694 -0.102288 -0.0970151
1737 1 0.699981 0.0498299 0.0499014 0.0146645 -3.3218 0.0405967 -0.0157344 0.0742682
1734 1 0.675521 0.0749942 0.0500218 0.0372279 -3.32013 -0.0919644 -0.00411229 0.0517803
139 1 0.725105 0.0498394 0.0248668 0.0283188 -3.31524 0.0851502 0.00893788 0.0857043
1741 1 0.749953 0.0500853 0.0503947 0.0348724 -3.32214 -0.00327015 -0.0982137 -0.109006
141 1 0.750534 0.0497619 0.000220798 0.0362518 -3.30241 -0.0484948 0.0646563 -0.0991167
144 1 0.750176 0.0749384 0.0254262 0.0215248 -3.30783 -0.0446636 -0.0208266 -0.0372701
219 1 0.725132 0.0998428 0.0252624 0.0169754 -3.31962 -0.0730596 0.0337376 -0.0444163
221 1 0.750254 0.0999615 0.000295512 0.0159539 -3.31505 -0.0145568 0.0324421 -0.0690783
143 1 0.77499 0.0503079 0.0252614 0.0456815 -3.3163 0.0924636 -0.11692 0.0572323
148 1 0.800433 0.0749251 0.025104 0.0311893 -3.30391 -0.104421 0.0153699 -0.0378593
142 1 0.775097 0.074886 9.13348e-06 0.00680093 -3.31648 -0.0236366 0.0377968 0.0146576
1745 1 0.800547 0.0499686 0.050295 0.0520555 -3.3071 -0.126338 -0.0385907 -0.0808635
147 1 0.824775 0.049881 0.0247654 0.0253959 -3.31276 0.107869 -0.0355347 0.0297407
149 1 0.85013 0.0499872 -0.000111588 0.0131258 -3.32279 -0.00532811 -0.079861 0.00919018
151 1 0.875081 0.0498796 0.025002 0.0109953 -3.32095 -0.0197934 0.0314056 -0.0863288
152 1 0.849622 0.074826 0.0252406 0.0333179 -3.32069 0.110417 -0.0363317 -0.102728
150 1 0.874886 0.074781 -0.000298709 0.0113205 -3.30638 0.0330314 0.0204377 0.0911055
1829 1 0.849943 0.0997953 0.0499328 0.00428668 -3.30043 0.0240797 0.0256143 0.0275431
155 1 0.924496 0.0500608 0.0247009 0.0384449 -3.30411 0.0679724 -0.0074702 0.0280549
156 1 0.899747 0.0749946 0.0246572 0.0194309 -3.30954 0.00674548 -0.0328906 0.0320788
1833 1 0.899992 0.0997311 0.0497246 0.00960059 -3.30899 -0.0284547 0.037251 0.0504628
84 1 0.999458 0.0749802 0.0248042 0.0229795 -3.31288 0.00426558 0.0258905 -0.00259585
160 1 0.949758 0.0748701 0.0252155 0.0288518 -3.32297 0.0995269 0.0404432 -0.0576038
1837 1 0.949867 0.0996507 0.0502118 0.0190585 -3.31727 -0.0361633 -0.0100612 -0.0697307
1757 1 0.949573 0.0499609 0.0499238 0.0170339 -3.31322 -0.00538525 -0.0291795 -0.0185531
237 1 0.949645 0.0999248 -0.000489581 0.0463329 -3.30169 0.0602645 0.0601772 0.183743
158 1 0.974513 0.0751453 -0.000235343 0.0223998 -3.31637 0.055414 -0.0576273 0.0684095
168 1 0.0500861 0.12481 0.0250729 0.0100137 -3.29682 -0.00627469 -0.0180499 0.00400834
162 1 0.0250186 0.124946 0.000477931 0.0380742 -3.31914 -0.0704494 -0.0275826 -0.139741
164 1 -0.000453962 0.125137 0.0249839 0.0200049 -3.31313 0.036225 -0.0329474 0.0211642
1845 1 0.0496553 0.149842 0.0499778 0.00796829 -3.30885 0.00867747 0.016588 -0.0148601
165 1 0.0498367 0.099753 0.000447471 0.0347763 -3.32718 0.00667267 0.0509743 -0.0781827
167 1 0.0751609 0.0999832 0.0253179 0.03239 -3.31731 -0.064656 -0.0488161 -0.0840619
172 1 0.100004 0.125259 0.0248096 0.018723 -3.30564 0.00562401 -0.0544658 0.0687936
166 1 0.0750103 0.125255 0.000154936 0.0193708 -3.3103 -0.0396197 -0.0941971 -0.103872
247 1 0.0749029 0.149646 0.0247729 0.0486112 -3.31565 0.0413142 0.138687 0.110663
169 1 0.0999064 0.100326 0.0001329 0.0268593 -3.31586 -0.0284259 -0.0778166 -0.042026
173 1 0.150018 0.100182 0.000108328 0.0143053 -3.30673 0.0541537 0.0216957 -0.0375141
171 1 0.12472 0.100375 0.0252507 0.0455768 -3.31521 0.0892098 -0.0428332 -0.0400959
176 1 0.150368 0.125055 0.0252187 0.0331681 -3.32432 -0.0918878 0.00672895 -0.044698
174 1 0.175221 0.125068 -0.000135964 0.0148665 -3.30981 -0.112419 -0.0185885 0.00331547
253 1 0.149938 0.14986 -7.5104e-05 0.0156651 -3.31437 0.00611966 0.035358 0.0206373
255 1 0.175324 0.149948 0.0248184 0.0222172 -3.30495 -0.0756486 0.00797572 0.05879
1774 1 0.175208 0.125245 0.0501635 0.0315573 -3.31222 -0.0758233 -0.0753249 -0.06209
170 1 0.125241 0.125023 -0.000234504 0.0290026 -3.30922 -0.0513095 -0.00104206 0.0653787
180 1 0.200124 0.124991 0.0249712 0.00829479 -3.31433 -0.00417593 -0.0501629 0.00546758
179 1 0.225404 0.099932 0.0247669 0.0342275 -3.31275 -0.0897629 0.0717567 0.0625953
177 1 0.199803 0.100031 0.00038495 0.0453435 -3.31378 0.0915141 -0.0312904 -0.108988
184 1 0.250347 0.125197 0.0246233 0.039132 -3.31954 -0.0806556 -0.0513296 0.152661
1861 1 0.250412 0.150238 0.0500217 0.0224684 -3.30177 -0.130731 -0.142266 0.0123725
1785 1 0.300022 0.100158 0.0496 0.0397449 -3.30993 -0.00419529 -0.0327725 0.110368
188 1 0.300331 0.125066 0.0253021 0.0309677 -3.31202 -0.0845162 0.0181873 -0.0181526
186 1 0.324862 0.125185 -0.000104111 0.0190781 -3.30579 0.052599 -0.105049 0.0239792
192 1 0.349795 0.125221 0.0251507 0.0222556 -3.3195 0.0028944 -0.102162 -0.0300348
267 1 0.324873 0.150153 0.0252248 0.0138749 -3.30556 0.0574992 0.000331374 -0.0161952
265 1 0.300265 0.149497 1.71465e-05 0.0650272 -3.30735 -0.0364679 0.219405 -0.0290593
1869 1 0.349816 0.150113 0.0504515 0.0352165 -3.30921 0.114672 0.0271394 -0.118858
196 1 0.40047 0.125025 0.025338 0.0398469 -3.315 -0.102027 0.00973253 -0.0450125
1790 1 0.375011 0.125178 0.0503576 0.0461874 -3.32323 0.0309597 -0.0187311 -0.121664
273 1 0.400244 0.14991 0.000316296 0.0247794 -3.30911 -0.0489378 0.0139855 -0.108715
271 1 0.374716 0.149739 0.0248281 0.0661176 -3.32159 0.0902688 0.105387 0.116249
1873 1 0.399732 0.150567 0.0498545 0.048909 -3.32016 0.0196073 -0.124476 0.0254963
195 1 0.425676 0.100198 0.025241 0.0337704 -3.30136 -0.0595369 -0.0445797 -0.0967473
200 1 0.450191 0.125369 0.0250751 0.0116818 -3.3167 0.0447825 -0.000155241 0.0134444
1794 1 0.425334 0.125297 0.0502023 0.0285953 -3.31551 -0.0556924 0.00173463 -0.00148746
1877 1 0.450346 0.149987 0.0499322 0.0235528 -3.31242 -0.10371 0.0959126 -0.0140113
204 1 0.500295 0.125069 0.0251904 0.00952429 -3.31905 -0.0329923 -0.0317995 -0.051772
279 1 0.475417 0.150242 0.0251109 0.0135507 -3.31739 -0.0214557 -0.0727091 -0.0211532
1881 1 0.500692 0.150152 0.0502741 0.0378333 -3.31098 -0.097481 -0.057274 -0.0186005
1802 1 0.525307 0.124948 0.0497592 0.0210469 -3.29891 -0.0882 -0.0406686 0.0910218
207 1 0.575206 0.0999575 0.0248288 0.0193252 -3.3187 -0.00329283 -0.0371227 0.111167
208 1 0.550063 0.12471 0.0249869 0.0112931 -3.30662 0.0755837 0.046979 -0.0528879
1885 1 0.549893 0.149738 0.0500505 0.020332 -3.30986 0.00926889 0.14718 0.0369877
206 1 0.575365 0.124994 -0.000169463 0.0175843 -3.31825 -0.0473616 -0.0539442 0.011329
1806 1 0.57474 0.125167 0.0501903 0.023671 -3.30917 0.0277291 -0.0882745 -0.0415692
212 1 0.599867 0.124983 0.0250598 0.0128413 -3.32807 0.0769701 0.00365816 0.033164
291 1 0.62512 0.149997 0.0250113 0.00548528 -3.31511 -0.0119341 -0.0349961 -0.00932157
210 1 0.625056 0.125069 -0.000103819 0.0137678 -3.31286 -0.052184 0.000571712 0.0879826
1810 1 0.625199 0.124714 0.0501659 0.0307913 -3.31841 -0.0191231 0.131803 -0.0816614
213 1 0.649833 0.100137 7.62868e-05 0.0218564 -3.32281 0.0529871 -0.064013 0.0437125
216 1 0.649963 0.12488 0.025099 0.0156013 -3.31487 -0.00790931 0.0404339 -0.0473241
220 1 0.700001 0.125235 0.0251965 0.0285642 -3.3073 0.121346 -0.0637799 -0.0324424
214 1 0.675661 0.12469 0.000310835 0.0802869 -3.32304 -0.0899631 0.095492 -0.0474668
1813 1 0.650305 0.0998988 0.0502672 0.0188013 -3.30435 -0.0339468 -0.0311813 -0.0488603
1814 1 0.67489 0.125002 0.0499083 0.0240843 -3.30436 -0.0335739 0.105663 0.0766601
224 1 0.749764 0.125087 0.0253132 0.0320525 -3.31122 0.055685 -0.0380527 -0.15699
1821 1 0.749972 0.099671 0.0500534 0.0169731 -3.30467 0.0530099 0.04249 0.00185212
1901 1 0.749956 0.150231 0.05008 0.0201799 -3.31626 0.00314397 -0.0766733 0.0177358
1818 1 0.725229 0.125004 0.0498064 0.030533 -3.30234 -0.00765378 0.0651778 0.0807137
223 1 0.775096 0.0997993 0.0250386 0.0102201 -3.30764 -0.0340327 0.0308951 0.00987578
228 1 0.799857 0.124784 0.0249561 0.0134493 -3.30672 0.0584038 -0.0393048 0.0365245
1822 1 0.774659 0.12485 0.0501075 0.0203481 -3.31834 0.0308091 0.0297854 0.028434
231 1 0.874884 0.0997203 0.0247883 0.0152908 -3.30653 -0.030204 -0.0206928 0.0344057
227 1 0.825165 0.0998092 0.0251453 0.0162565 -3.30902 -0.0538798 0.0816838 -0.0538382
232 1 0.850323 0.12492 0.0250567 0.0123719 -3.29856 -0.0273759 -0.0485804 -0.0783073
230 1 0.875117 0.124973 0.000176283 0.0195754 -3.30645 -0.011897 -0.0792181 -0.141038
307 1 0.82512 0.149439 0.025345 0.0477987 -3.32399 -0.0390463 0.136206 -0.131653
311 1 0.875259 0.14995 0.0249609 0.0130253 -3.30874 -0.0125539 0.0278364 -0.0241503
1909 1 0.850635 0.149917 0.0497835 0.0423189 -3.30379 -0.110437 -0.0120924 0.10282
235 1 0.924681 0.100066 0.0248361 0.0223411 -3.31205 0.134861 -0.0610763 0.0213319
236 1 0.899605 0.124605 0.0248475 0.0288101 -3.29432 0.0774919 0.0676798 0.0146346
1834 1 0.924822 0.124786 0.0497402 0.0158089 -3.30547 0.0310237 -0.00701266 0.067612
313 1 0.89977 0.150056 -0.000226433 0.0209428 -3.30205 0.0692624 -0.0173054 0.0705548
234 1 0.924763 0.124929 -0.000167268 0.0106594 -3.31551 0.0289385 0.0207674 0.0882771
239 1 0.974668 0.1001 0.0252177 0.0224755 -3.31862 0.00369706 -0.0849733 -0.0660331
240 1 0.94989 0.12488 0.02531 0.0381677 -3.30132 -0.0721593 0.00679769 -0.172029
238 1 0.974581 0.124613 5.78316e-05 0.0431451 -3.30988 -0.0203622 0.147205 0.0154385
243 1 0.0250405 0.149791 0.0250373 0.0115993 -3.31771 -0.04689 0.0239494 -0.00538121
248 1 0.0500067 0.175108 0.0249888 0.0188226 -3.31439 -0.0384515 -0.066879 -0.00390003
244 1 -5.95713e-05 0.174687 0.0249537 0.0194673 -3.31579 -0.0506575 0.0356567 0.0278808
1925 1 0.0496853 0.199955 0.0499243 0.00568757 -3.30816 0.000243202 0.00945176 -0.0298729
323 1 0.0246512 0.199764 0.024786 0.0179764 -3.31352 0.053145 0.0599942 -0.0204221
325 1 0.0498736 0.199998 -0.000139766 0.01102 -3.30891 -0.0889232 -0.00621345 0.072394
252 1 0.0996089 0.17515 0.0252873 0.0238827 -3.31523 -0.00653304 -0.0506225 -0.0126722
327 1 0.0748295 0.200259 0.0249923 0.0183749 -3.30409 -0.0313691 -0.0532644 0.00685731
246 1 0.0748953 0.175195 0.000413087 0.0414435 -3.31574 0.00602667 -0.0641077 -0.109544
251 1 0.124798 0.150018 0.0249068 0.0139818 -3.31059 0.015983 -0.00401933 0.0302291
256 1 0.150265 0.174647 0.0251514 0.0507834 -3.31027 -0.0649259 0.0682693 -0.0616191
254 1 0.174596 0.174972 -0.000391114 0.0458402 -3.32347 0.0911772 0.0690152 0.0955545
250 1 0.124932 0.175131 0.000493732 0.0357464 -3.31238 0.0255299 -0.041529 -0.0690191
331 1 0.125129 0.200116 0.0251447 0.0214898 -3.32152 -0.0506087 -0.02708 0.0894717
1933 1 0.149981 0.199722 0.0500757 0.0279783 -3.31424 -0.00872996 0.0835953 -0.0201922
259 1 0.224935 0.150112 0.0248803 0.0135624 -3.31171 0.0228198 -0.0315178 0.0518522
260 1 0.200005 0.175097 0.0249175 0.00577236 -3.31901 -0.0354741 0.00576525 0.0181428
339 1 0.225153 0.199938 0.0248773 0.0222199 -3.31557 -0.00574665 -0.00569056 0.0878667
337 1 0.200006 0.200265 7.93224e-05 0.0183558 -3.31858 -0.04869 -0.06394 -0.00207719
263 1 0.275204 0.150143 0.0251808 0.0150796 -3.30725 0.0817351 -0.0567804 -0.04392
264 1 0.250318 0.174789 0.0254999 0.0436304 -3.3097 -0.0828884 0.0850274 -0.121591
343 1 0.275073 0.199794 0.0248471 0.0258502 -3.31502 -0.0380327 0.0998289 0.0906384
1865 1 0.300084 0.150481 0.0502194 0.0322179 -3.31115 -0.00355881 -0.143498 0.00957777
268 1 0.300185 0.175094 0.0249126 0.0149187 -3.31257 0.00743921 -0.0107269 0.0714879
272 1 0.34992 0.175064 0.0249418 0.0165959 -3.31786 0.0496504 -0.00322334 0.0599882
347 1 0.325129 0.200225 0.0251778 0.0166887 -3.31301 0.00261391 -0.00328661 -0.0199715
1866 1 0.325152 0.175217 0.0499725 0.0187332 -3.30441 -0.0070695 0.023131 -0.00512977
349 1 0.350123 0.199952 0.000323109 0.0193861 -3.32067 0.0500937 0.0423234 -0.0399218
266 1 0.325173 0.174856 -4.77935e-05 0.0178032 -3.30804 -0.0505101 0.0273139 0.0284614
276 1 0.399781 0.17544 0.0249126 0.0319061 -3.29972 0.0332508 -0.171726 0.0512374
1870 1 0.374926 0.175346 0.0500636 0.0142612 -3.31435 -0.0863924 -0.0398924 -0.0265712
1953 1 0.399922 0.200159 0.0500796 0.00586651 -3.30814 0.029763 0.0178536 0.0662747
353 1 0.399991 0.200072 -0.000208824 0.0134311 -3.30936 0.00318263 0.0216021 0.0398564
275 1 0.424667 0.150145 0.0249208 0.0354669 -3.30972 0.110838 0.021754 0.102093
280 1 0.449839 0.174987 0.0248854 0.0141045 -3.31324 0.025027 0.0226521 0.108126
355 1 0.424606 0.200198 0.0251137 0.0209731 -3.315 0.0948504 0.0110539 -0.0246424
274 1 0.424817 0.17499 -2.57941e-05 0.0114605 -3.30519 0.022647 0.0532137 -0.00480984
283 1 0.525193 0.150003 0.024902 0.0107761 -3.31109 0.0387329 0.00940662 0.0087649
284 1 0.500259 0.174808 0.0251288 0.0261573 -3.30984 0.0385101 0.147531 0.0136081
363 1 0.525927 0.200184 0.0252324 0.0785144 -3.31766 -0.172799 -0.0286863 -0.0638348
1878 1 0.475454 0.175081 0.0501852 0.0204673 -3.31595 -0.0626414 0.000913138 -0.0795077
278 1 0.474968 0.17496 0.000468034 0.0321872 -3.30782 0.0442552 0.0603076 -0.14997
282 1 0.525414 0.17515 0.000318295 0.0347112 -3.31976 -0.0124331 -0.025065 -0.109832
359 1 0.474956 0.199978 0.0250029 0.00885827 -3.31279 0.0127199 0.00861018 0.0815418
1961 1 0.500167 0.20012 0.0500662 0.0106639 -3.3063 0.0514738 -0.0186408 -0.120008
1882 1 0.525045 0.175062 0.0501603 0.0140963 -3.30699 0.0575964 -0.0203474 -0.0404001
287 1 0.574712 0.150098 0.0251739 0.0209668 -3.30614 0.0541204 -0.0493798 -0.0456409
285 1 0.550002 0.149599 9.26455e-06 0.0378928 -3.31576 0.0187724 0.106584 -0.0279666
288 1 0.550444 0.175131 0.0249969 0.0335237 -3.29819 -0.113767 -0.07784 0.0511704
1886 1 0.574846 0.175194 0.0501854 0.0237532 -3.31168 0.0691284 -0.102934 -0.0274247
367 1 0.574841 0.200004 0.024971 0.0175074 -3.31877 0.0437481 0.0447463 0.0548975
365 1 0.550195 0.200014 -0.000275313 0.0375285 -3.30358 0.0168678 0.0162524 0.0318813
292 1 0.600105 0.174956 0.0249005 0.0117676 -3.31876 -0.0786527 0.0266242 0.0483683
289 1 0.599755 0.150199 0.000120258 0.0180976 -3.31379 0.0591291 -0.0359262 0.0150879
1889 1 0.599859 0.150114 0.0498472 0.013808 -3.31764 0.026418 -0.026053 0.0151487
1890 1 0.625078 0.175116 0.0498305 0.00469662 -3.31106 -0.00814395 0.0133367 -0.000685913
295 1 0.675338 0.150148 0.0250086 0.0103025 -3.32133 -0.0675332 0.0168046 -0.0458819
296 1 0.650152 0.174996 0.0247562 0.0168513 -3.32248 0.0630681 -0.00768719 0.0278954
293 1 0.65005 0.149762 3.87062e-05 0.0321265 -3.32167 0.0619543 0.0893755 0.0756324
300 1 0.700647 0.175076 0.0251662 0.0307391 -3.30067 -0.148988 0.0476792 -0.0956068
375 1 0.675608 0.19996 0.0251204 0.0215837 -3.31321 -0.0810706 0.0166838 -0.0689091
294 1 0.675595 0.175157 -0.000161026 0.0342546 -3.3157 -0.0541527 -0.096781 0.12766
1894 1 0.675356 0.175104 0.0501334 0.0134614 -3.31403 -0.0423768 0.0463551 -0.0965907
1897 1 0.700134 0.150243 0.049966 0.00758489 -3.30568 -0.0161582 -0.0881329 0.0440436
1893 1 0.650098 0.150289 0.0499865 0.0147569 -3.31886 -0.000534203 -0.0886265 -0.0107067
1977 1 0.70019 0.200275 0.0499311 0.0124066 -3.31344 0.0216606 -0.00986048 0.0531364
299 1 0.725001 0.150359 0.0252156 0.0254262 -3.29961 0.080441 -0.0781598 -0.0394737
304 1 0.750424 0.17513 0.0247912 0.0307489 -3.32385 -0.0483016 -0.0497126 0.0293429
1898 1 0.724946 0.175294 0.0499983 0.010519 -3.30734 0.0915066 0.008618 -0.0219466
305 1 0.800155 0.149548 -0.000183213 0.0245385 -3.30569 0.0854047 0.101956 0.107257
303 1 0.775253 0.149589 0.0249478 0.0274084 -3.31626 -0.0798183 0.0765886 0.020692
308 1 0.799761 0.174654 0.025117 0.0276506 -3.31951 0.0974967 -0.0234822 -0.0495734
302 1 0.775249 0.174675 -0.000154351 0.0373926 -3.3198 -0.0355218 0.0685531 0.0746787
383 1 0.775192 0.199988 0.0249781 0.0119438 -3.2983 -0.0422158 -0.0314552 -0.0373929
1905 1 0.800183 0.149412 0.0502405 0.0313062 -3.31572 -0.0580061 0.0889607 -0.0115885
306 1 0.825167 0.174717 0.000111041 0.0114583 -3.32454 -0.0406537 0.00552218 0.0176838
312 1 0.849908 0.175168 0.0251492 0.0519509 -3.30957 0.0750296 -0.146086 -0.0519559
391 1 0.875156 0.199845 0.0251277 0.00843188 -3.31017 -0.0405153 0.0318476 0.0053064
389 1 0.850398 0.19982 -0.000129296 0.023939 -3.31098 -0.0529741 0.0368445 0.0570836
315 1 0.924514 0.149662 0.0251257 0.0367391 -3.31289 0.0632879 0.0502694 -0.0676932
316 1 0.899895 0.174938 0.0254677 0.0287655 -3.30566 0.0826828 0.00301733 -0.116926
1993 1 0.899997 0.199926 0.0502724 0.0167063 -3.31666 -0.0187654 -0.00829881 -0.000963389
314 1 0.924565 0.175133 8.70024e-05 0.0110882 -3.30673 -0.0175113 -0.0161639 -0.0332753
319 1 0.974469 0.149929 0.024757 0.0312051 -3.31044 0.0691199 0.0564139 0.0642812
320 1 0.949459 0.175208 0.0251029 0.0247365 -3.31612 0.0612437 -0.0606029 -0.0294512
399 1 0.974575 0.200257 0.0251978 0.0278287 -3.32679 0.017122 -0.069543 -0.0625363
1918 1 0.974588 0.175233 0.0498748 0.0261543 -3.32115 0.0123195 -0.0768096 0.0134669
318 1 0.975105 0.175013 0.00022753 0.0299005 -3.30975 -0.0986545 0.00857747 -0.0254882
328 1 0.0497502 0.22488 0.0249712 0.012007 -3.31111 -0.0129894 0.057384 -0.020448
324 1 -0.000129231 0.224917 0.0250035 0.0131694 -3.30736 0.0619072 -0.0219098 -0.102156
405 1 0.0498508 0.250051 -1.76855e-05 0.00680502 -3.3138 -0.0131897 0.0608795 -0.0408493
322 1 0.0251096 0.225251 -0.00019069 0.0355664 -3.31689 -0.0689503 -0.106232 0.0389562
401 1 -2.47457e-05 0.250018 0.000199222 0.0167399 -3.3192 -0.116854 0.0247465 -0.0700248
332 1 0.0996522 0.224936 0.0250279 0.0207858 -3.319 0.0957642 0.0360543 0.102264
326 1 0.0746542 0.225288 0.00016775 0.0270382 -3.31384 0.0530935 -0.0791723 -0.0719959
407 1 0.075002 0.249971 0.0248878 0.0150595 -3.31497 -0.0426411 0.0216007 0.0816312
409 1 0.100102 0.250048 0.000271312 0.0157917 -3.3018 -0.0545181 0.0015998 -0.0234112
2009 1 0.0999547 0.250015 0.0502693 0.0209664 -3.31634 -0.0376692 -0.0194072 -0.0746038
1926 1 0.0745926 0.225082 0.0501184 0.0159276 -3.30927 0.00894558 0.027809 -0.0648476
335 1 0.174869 0.199947 0.0248597 0.00740988 -3.30713 -0.00439064 -0.012106 0.0201165
336 1 0.150157 0.22496 0.0251096 0.0161312 -3.3164 -0.0515838 0.0660296 0.0368784
330 1 0.124684 0.22514 0.000265076 0.0142921 -3.30696 0.0665452 -0.0192888 -0.00821473
415 1 0.174982 0.250524 0.0249647 0.0469588 -3.3138 -0.0346017 -0.15236 0.0621611
411 1 0.125097 0.250072 0.0251668 0.0117607 -3.31787 -0.0418295 -0.0517446 0.0429158