ITEM: TIMESTEP
15000
ITEM: NUMBER OF ATOMS
32000
ITEM: BOX BOUNDS pp pp pp
6.0718396309427369e+00 7.4928160369052108e+01
-2.5643070828205197e+00 8.3564307082814707e+01
-4.7736545199201998e+00 8.5773654519916050e+01
ITEM: ATOMS id type xs ys zs c_csym c_peratom fx fy fz
8 1 0.0627507 0.0209318 0.0284609 6.2005 -3.29307 -0.153139 -0.00327937 0.171825
4 1 0.0217852 0.0281953 0.0355656 6.10232 -3.29457 0.208637 0.226974 -0.0386163
2 1 0.0386474 0.0194826 0.00531272 6.31255 -3.28781 0.296182 0.204024 0.318992
12 1 0.0970802 0.0211609 0.0121725 0.617715 -3.28784 0.0501425 -0.0858938 -0.0694657
1610 1 0.118716 0.0197036 0.0383479 1.17056 -3.33913 0.16347 0.0454814 0.160128
91 1 0.12591 0.0458627 0.0149134 0.414588 -3.28767 -0.109148 -0.139785 -0.279542
1606 1 0.0825648 0.0224665 0.0532387 7.18412 -3.20754 -0.00209139 -0.221237 -0.0278507
1689 1 0.0939941 0.0454303 0.0333162 7.07092 -3.32739 -0.340049 0.137756 -0.0527812
16 1 0.150374 0.0200738 0.0181478 0.708753 -3.33209 -0.0884058 0.222686 -0.2577
1614 1 0.174564 0.0230174 0.04209 0.292562 -3.32862 -0.015675 -0.281401 0.098488
95 1 0.177071 0.0458613 0.0183553 0.929333 -3.29747 0.388349 -0.0731741 0.377276
1693 1 0.145884 0.0466157 0.0401515 0.573586 -3.28076 0.0260388 -0.344585 -0.0640746
20 1 0.205669 0.0239853 0.0215755 0.429221 -3.32114 0.366283 -0.225421 -0.0303567
1618 1 0.229496 0.0239885 0.0461284 0.309055 -3.32034 0.316566 -0.171808 0.0945281
99 1 0.235449 0.0490928 0.0254637 0.433663 -3.36042 0.102795 -0.272658 -0.274515
97 1 0.212075 0.0476793 -0.000896286 0.2173 -3.35016 -0.00699456 -0.176035 0.209943
17 1 0.210559 -0.00159886 -0.00102687 0.251008 -3.31107 0.010065 0.050522 0.0520899
1697 1 0.202083 0.0464742 0.0439861 0.339231 -3.31929 0.0483096 0.189909 0.0467349
18 1 0.239606 0.0247761 0.0019677 0.287554 -3.35597 -0.0353101 -0.0241412 0.208758
24 1 0.262315 0.0243222 0.0275953 0.366208 -3.36252 0.0940953 0.171969 -0.120999
103 1 0.293282 0.0498192 0.0296624 7.0109 -3.32427 -0.152937 -0.0398297 -0.153475
21 1 0.26837 9.82823e-06 0.00550852 0.991268 -3.28245 -0.319484 0.375009 -0.216867
101 1 0.269368 0.0484467 0.00432277 6.86849 -3.32958 -0.301337 0.185642 0.279566
22 1 0.295227 0.0262454 0.00685474 5.61069 -3.27953 -0.0995753 -0.100711 0.124565
28 1 0.318456 0.0272058 0.0316941 5.98335 -3.24483 -0.0300552 0.0647021 0.0123936
32 1 0.361369 0.0361891 0.0269974 2.64397 -3.25666 -0.0375565 -0.105922 -0.198435
26 1 0.335699 0.0336871 0.00324692 6.29397 -3.28006 0.620559 -0.182407 0.35641
25 1 0.320552 0.00352967 0.00779031 6.9245 -3.22461 -0.14761 0.352056 0.0928907
31 1 0.383599 0.0101824 0.0234614 5.75238 -3.28535 -0.142007 0.02159 -0.0259078
30 1 0.377049 0.0348642 0.997579 1.80301 -3.29003 0.0366715 -0.0173405 0.13176
36 1 0.402629 0.0381509 0.0202418 5.84996 -3.26651 -0.271568 -0.223101 0.2643
35 1 0.421227 0.00842681 0.0157651 5.91886 -3.23135 0.0248329 0.0230206 0.0522252
40 1 0.444488 0.0325969 0.0141683 6.49884 -3.27735 -0.203846 0.159216 0.330135
39 1 0.474193 0.0108537 0.0178974 0.44412 -3.28734 0.0312929 -0.236802 -0.025051
1637 1 0.445323 0.0104772 0.0404649 6.53573 -3.28139 0.103268 -0.019905 -0.021201
1638 1 0.468526 0.0342055 0.0404704 6.13052 -3.27995 0.00319651 0.203246 0.099229
44 1 0.50024 0.0342829 0.0189885 0.378884 -3.26317 0.00048342 0.0454653 0.0916085
43 1 0.528653 0.0108949 0.0221785 6.49651 -3.29388 -0.12532 -0.209569 -0.119062
42 1 0.528363 0.0344894 0.997831 7.02524 -3.32232 0.104612 -0.0279147 -0.228879
48 1 0.552996 0.0349464 0.0229385 6.32622 -3.27135 0.208252 0.113531 0.180545
41 1 0.504428 0.00909883 0.99539 6.21468 -3.33636 -0.0976846 0.0364837 0.223325
52 1 0.591008 0.0294619 0.0189663 0.533593 -3.28709 0.300109 0.120836 0.0426709
1650 1 0.616951 0.03286 0.0434294 5.78788 -3.2484 -0.138282 -0.0125727 0.117389
56 1 0.632275 0.0239168 0.0158036 7.3202 -3.32303 0.00721616 -0.0158952 -0.132078
135 1 0.656055 0.0500544 0.0161363 7.86252 -3.33248 0.215545 -0.0769502 -0.0559019
1654 1 0.658371 0.0280726 0.0411639 6.80494 -3.33075 0.031721 -0.0485466 0.0555325
60 1 0.690131 0.0283605 0.0217064 0.429688 -3.30176 -0.106196 0.113378 -0.0319214
1657 1 0.692491 0.00611439 0.0461311 0.37192 -3.29195 -0.0241963 -0.0437396 -0.0737132
59 1 0.720903 0.00628556 0.0248516 0.201159 -3.28465 0.0196053 0.0328627 -0.00482801
58 1 0.717315 0.0300851 0.999779 0.987374 -3.24353 0.276131 -0.383884 0.0898314
139 1 0.715901 0.0539485 0.0217878 0.455826 -3.2994 -0.0169104 -0.225633 0.114894
64 1 0.746174 0.0301097 0.0263391 0.47061 -3.2948 -0.0379117 0.330586 -0.226154
61 1 0.748997 0.00708822 0.0016878 6.76521 -3.29516 -0.0613327 -0.188078 0.0861921
68 1 0.801886 0.0304321 0.0272314 5.74863 -3.29141 0.153489 0.0863868 0.0425021
62 1 0.773099 0.0306586 0.00327405 6.53919 -3.29002 0.403935 0.0640184 -0.0577765
143 1 0.773614 0.0541305 0.0269361 1.34916 -3.27671 0.0507261 -0.308432 -0.223484
141 1 0.74446 0.0522955 -0.000573187 0.419101 -3.2741 -0.0641142 0.311952 0.271326
63 1 0.77651 0.00752597 0.0276383 6.68356 -3.25847 0.191053 -0.159662 0.0584137
65 1 0.792255 0.00150571 0.999055 6.81252 -3.33371 0.0428618 -0.0480916 -0.302096
72 1 0.847855 0.0276067 0.0254127 6.0169 -3.35276 -0.0224065 0.0874733 -0.200568
71 1 0.877944 0.00464587 0.0261592 0.312664 -3.33361 0.35485 0.122598 0.281193
76 1 0.90823 0.0283001 0.0288177 0.297686 -3.35054 -0.125267 0.106083 -0.223839
74 1 0.941345 0.0296294 0.00856093 0.29256 -3.31894 -0.111914 -0.288008 0.163511
75 1 0.939336 0.00573646 0.0311014 0.613917 -3.32897 -0.30249 0.06055 -0.140348
70 1 0.882276 0.0270349 0.0038837 0.274722 -3.34234 0.0870723 0.135429 0.212583
73 1 0.914426 0.00511632 0.00581649 0.71472 -3.35222 -0.383851 -0.0473019 0.066647
80 1 0.966255 0.0302296 0.0329837 0.227798 -3.3373 -0.0571396 -0.0985791 0.120914
78 1 0.997276 0.0290513 0.0120311 6.57915 -3.32767 0.103312 0.0221057 -0.0257802
77 1 0.96998 0.00441008 0.00982385 6.53509 -3.32619 0.0050251 0.107294 0.0551027
79 1 0.994353 0.00559771 0.0341329 7.34302 -3.32007 -0.35778 -0.222965 -0.15708
83 1 0.0529462 0.0521695 0.0374502 7.77751 -3.34886 -0.158932 -0.260912 0.173361
88 1 0.0789233 0.0761241 0.0403881 6.14771 -3.31281 0.203988 0.15112 0.106432
84 1 0.023761 0.0763468 0.0368873 0.158747 -3.34633 0.0312914 0.270231 -0.054273
82 1 0.0553623 0.0759463 0.0162616 6.4314 -3.31674 0.0631052 0.148418 -0.0616505
81 1 0.0269238 0.0511283 0.0138899 6.3415 -3.34885 0.155879 0.21085 -0.150177
87 1 0.0693008 0.0449386 0.00760127 6.2957 -3.32547 -0.0361891 0.052766 0.383318
92 1 0.0974483 0.0707835 0.0106045 5.93765 -3.32534 -0.111619 -0.221979 0.197877
171 1 0.124512 0.0952357 0.0137995 6.57199 -3.32992 0.106891 -0.393734 0.0146489
1690 1 0.119667 0.0707062 0.0366719 6.02591 -3.33047 -0.0534533 -0.12601 -0.119695
96 1 0.152484 0.0700267 0.016447 0.141626 -3.28344 -0.187312 0.351016 0.0394029
1694 1 0.174339 0.0697931 0.0414188 0.427079 -3.30666 0.223904 0.271227 -0.0367126
175 1 0.180828 0.0944291 0.0188613 0.171888 -3.33937 -0.0113593 0.147935 0.104228
1773 1 0.148216 0.094595 0.0389205 6.16577 -3.33586 0.00556729 -0.161524 -0.0730029
94 1 0.184495 0.0706054 0.997852 0.3201 -3.30943 0.00730636 -0.0380177 -0.28406
100 1 0.207474 0.0712288 0.0227254 0.25368 -3.32849 0.0872071 -0.0733144 -0.039275
1777 1 0.205798 0.0959455 0.0438571 0.268705 -3.33608 -0.222622 -0.00866372 0.0824856
98 1 0.242227 0.072555 0.00307036 7.30596 -3.32206 0.0565205 -0.225394 -0.0888739
104 1 0.267194 0.0729305 0.0262438 7.17421 -3.32126 -0.164482 -0.098669 0.162693
108 1 0.308262 0.0815258 0.0220376 0.254192 -3.29339 -0.0157214 -0.0767193 0.211709
102 1 0.283464 0.0793239 0.998603 0.282445 -3.30039 -0.135849 0.297772 -0.32822
105 1 0.311278 0.0575106 0.00040312 0.355144 -3.23901 -0.0233633 0.00779335 -0.239905
107 1 0.334678 0.0584133 0.0237613 0.605551 -3.2884 0.201418 0.0494478 0.253525
111 1 0.377686 0.0649562 0.0210431 6.33886 -3.30382 0.13456 0.265685 0.0769499
112 1 0.34936 0.0885528 0.0190544 6.70334 -3.33803 0.181288 0.166456 0.0395475
1710 1 0.373729 0.0891114 0.0444502 6.73565 -3.34254 0.0829524 0.255102 -0.287093
109 1 0.355429 0.0639549 0.995905 7.69454 -3.3264 -0.102893 -0.118189 0.114207
115 1 0.42556 0.0621165 0.0201842 0.815752 -3.23366 0.192713 0.165348 0.0738706
1713 1 0.401555 0.065506 0.0455472 6.08219 -3.31012 0.0875382 0.277735 -0.0688101
113 1 0.400906 0.0594265 0.996005 1.16147 -3.28461 -0.240983 0.239463 -0.305183
116 1 0.409476 0.0926221 0.0253274 7.13479 -3.33009 -0.175978 -0.338924 0.108449
110 1 0.383966 0.0905386 0.00126702 6.80346 -3.35708 -0.0591695 -0.122712 -0.0136987
114 1 0.424439 0.0849059 0.997565 0.504303 -3.29905 0.0969806 -0.0137277 -0.338525
119 1 0.469934 0.0558202 0.016955 5.6923 -3.31618 -0.182031 0.353782 -0.0655519
120 1 0.451693 0.0851953 0.0214495 0.62375 -3.31269 0.202415 0.186017 0.0686945
118 1 0.467436 0.0796522 0.991946 6.41904 -3.35073 0.111644 0.0992258 0.00557764
123 1 0.525779 0.0582115 0.0222659 6.30338 -3.27263 0.0494854 0.0440987 -0.0371516
121 1 0.497662 0.0567767 0.994423 0.611063 -3.31761 0.39582 0.283938 0.0578251
124 1 0.495326 0.0815583 0.0179924 7.81726 -3.36771 -0.104727 -0.158716 -0.0344631
128 1 0.540555 0.0871616 0.018022 6.14352 -3.29476 -0.163975 -0.0816346 -0.364711
127 1 0.572457 0.0632938 0.0216433 7.4973 -3.30821 -0.0941411 -0.0396938 -0.0247025
131 1 0.613762 0.0559571 0.0190363 0.277957 -3.30249 -0.0315354 0.0466431 0.0819168
132 1 0.597945 0.0880708 0.0230152 7.46458 -3.30145 -0.200287 -0.223376 -0.0952087
126 1 0.573532 0.0861587 0.998064 7.44919 -3.31595 -0.0360584 0.076919 -0.0255527
136 1 0.640603 0.0804195 0.0192866 0.407737 -3.31575 -0.1126 0.069156 0.0374579
1733 1 0.638956 0.0587347 0.0429615 0.8151 -3.28645 0.0684876 0.011401 0.40256
1734 1 0.665081 0.0828388 0.0457873 5.92952 -3.27386 -0.081153 -0.200865 -0.136359
1737 1 0.68402 0.0538973 0.0412176 8.60058 -3.32629 0.0750012 -0.195853 0.165073
140 1 0.684239 0.0757286 0.0182726 6.06142 -3.33318 -0.235704 0.106473 -0.107406
144 1 0.744523 0.0762616 0.022651 1.67897 -3.30999 -0.0833911 0.186108 0.0455074
219 1 0.712009 0.100057 0.0174394 6.55568 -3.30689 -0.161994 -0.0678019 0.188348
1738 1 0.714853 0.0776924 0.0429452 6.77688 -3.25306 -0.106191 -0.485691 0.136535
148 1 0.793132 0.0802623 0.0207705 6.48985 -3.28326 0.194712 0.0446678 0.273807
147 1 0.824171 0.0557492 0.0253124 6.64116 -3.24404 -0.180094 -0.114463 -0.363538
152 1 0.852985 0.0776952 0.0236519 0.620101 -3.2997 -0.144882 0.252261 0.0910941
1746 1 0.818806 0.0809725 0.0440608 6.19776 -3.33116 0.0064508 0.285368 0.153958
149 1 0.853327 0.0501814 0.00292532 0.888029 -3.35597 -0.240584 0.0789256 -0.197468
151 1 0.878471 0.051631 0.0267657 0.845102 -3.31674 0.193903 0.153048 -0.312688
155 1 0.936482 0.0533831 0.0300483 0.115848 -3.33805 -0.0754133 -0.14075 0.151144
156 1 0.90777 0.0765316 0.0272542 0.278161 -3.35861 -0.0625425 0.105212 -0.0225295
150 1 0.880975 0.0751713 0.00285495 0.44172 -3.3481 0.242437 0.10607 0.00605886
153 1 0.910438 0.0524042 0.00598354 0.22627 -3.32443 -0.0425336 -0.263718 0.24663
154 1 0.939702 0.0757001 0.00747067 0.215095 -3.32526 0.18529 0.0475494 0.124112
159 1 0.995468 0.0540817 0.0346084 0.409216 -3.32157 -0.163735 -0.222947 0.124212
160 1 0.965069 0.0771761 0.0333944 0.352947 -3.34339 0.0737644 -0.0555777 -0.17638
157 1 0.969385 0.0536618 0.0114182 0.512197 -3.33406 -0.0159188 -0.0995341 -0.269028
158 1 0.998357 0.0764225 0.0119761 0.203018 -3.33466 0.160131 0.125428 0.103351
161 1 0.028062 0.100503 0.0145377 0.268576 -3.3603 -0.217915 -0.0632465 -0.0269102
165 1 0.0605809 0.100547 0.994221 7.51614 -3.35317 -0.221112 0.217252 -0.0171861
163 1 0.0522073 0.101419 0.0396592 0.280428 -3.32628 0.0204078 -0.214222 0.0583941
164 1 0.0239225 0.123743 0.036831 0.305312 -3.35462 -0.263598 0.0986705 0.224872
162 1 0.0562991 0.124919 0.0176038 0.202999 -3.32917 -0.0235247 -0.145452 -0.212594
168 1 0.0811115 0.124341 0.0427675 0.0815777 -3.31598 -0.0777412 -0.085795 -0.0597304
167 1 0.0845704 0.10042 0.0189352 6.77435 -3.34656 -0.0219149 0.181129 0.131374
172 1 0.113884 0.124142 0.0233503 6.50162 -3.34723 -0.0632069 0.178456 -0.123318
170 1 0.130958 0.117235 0.991352 7.49163 -3.30107 -0.193928 0.171918 0.000998552
176 1 0.153545 0.118201 0.0171325 6.90805 -3.30231 -0.0808643 -0.0419771 -0.31096
174 1 0.186865 0.11886 0.997017 7.04725 -3.32397 -0.0159942 -0.31789 0.0625496
179 1 0.239361 0.0965619 0.0249097 6.85332 -3.33159 -0.0926328 -0.231987 -0.134839
180 1 0.210196 0.119573 0.0221633 6.49031 -3.32582 0.141928 -0.146247 -0.118875
184 1 0.253901 0.126141 0.0187493 0.326413 -3.29499 -0.224736 0.445463 -0.102993
177 1 0.215436 0.0953518 1.00058 7.01763 -3.34316 -0.191388 0.0954982 -0.0367773
181 1 0.257204 0.103209 0.995235 0.343337 -3.31965 -0.197206 -0.0143418 0.0339959
178 1 0.228356 0.126198 0.994208 0.176879 -3.32135 0.110896 0.0470351 -0.105561
183 1 0.280697 0.104314 0.0197644 0.26261 -3.28119 0.235031 -0.154773 0.0455759
188 1 0.294692 0.136514 0.014775 7.58627 -3.35264 -0.0390545 -0.202623 -0.0152434
1789 1 0.347045 0.113438 0.0413519 7.10986 -3.33593 0.0148927 -0.136777 0.0571194
187 1 0.322135 0.112158 0.0169153 6.9273 -3.33763 -0.0775404 0.169799 -0.0648756
192 1 0.352923 0.139061 0.0215597 0.292311 -3.31421 -0.189428 -0.125573 0.0736249
1786 1 0.319005 0.135437 0.0393915 6.58515 -3.35817 -0.053241 0.175547 0.209503
195 1 0.436034 0.116715 0.0287658 6.73057 -3.34994 0.249915 0.0675325 0.0248188
191 1 0.380652 0.115481 0.0245402 0.427679 -3.30584 -0.0716072 0.00707779 -0.2093
196 1 0.409041 0.141591 0.0290943 0.744652 -3.30594 0.100691 -0.354647 -0.0741082
193 1 0.410926 0.116042 0.00330854 6.72451 -3.31155 0.0269635 -0.0835382 0.0607819
190 1 0.38513 0.140659 0.00361285 0.802604 -3.32123 0.195456 -0.0718946 -0.0381311
194 1 0.437923 0.140386 0.00729183 6.01808 -3.29085 0.269429 -0.240124 0.224526
199 1 0.476941 0.11029 0.0269409 3.37403 -3.31028 -0.153898 -0.243377 -0.101416
200 1 0.463617 0.141122 0.0343789 6.58309 -3.33426 -0.104702 -0.0459812 -0.0158506
197 1 0.45098 0.108505 -0.00010895 1.51055 -3.28901 -0.132843 -0.0638811 0.188352
204 1 0.477398 0.132509 0.00622739 6.26382 -3.30627 0.235695 0.172798 -0.0173834
203 1 0.511869 0.110678 0.0114491 5.42162 -3.28599 -0.0470988 -0.00788956 0.248104
1805 1 0.533978 0.111227 0.0370985 4.73768 -3.29411 0.0571688 0.0721396 -0.0415794
208 1 0.536646 0.135783 0.0142208 0.275536 -3.31193 0.0220372 -0.252893 -0.0238394
1802 1 0.50323 0.134203 0.0326895 7.59955 -3.31618 0.134714 -0.0408619 -0.270407
207 1 0.566317 0.112386 0.0185223 0.326728 -3.32726 0.139204 -0.144797 -0.0158981
212 1 0.59261 0.136114 0.0211224 0.223007 -3.32707 -0.0173641 -0.286429 -0.247023
209 1 0.598841 0.110077 0.998984 6.93735 -3.32969 -0.0202553 0.288407 0.0764234
206 1 0.568103 0.136073 0.995492 0.394615 -3.31884 -0.0223856 -0.143821 -0.0384817
211 1 0.623471 0.111363 0.0238254 6.63804 -3.31459 0.0536848 0.115068 0.0424209
210 1 0.6244 0.134878 1.9481e-05 6.6389 -3.33068 -0.143946 -0.0843616 0.165384
215 1 0.665145 0.105319 0.0219217 0.493891 -3.29791 -0.0635995 -0.254688 -0.179437
216 1 0.64909 0.134774 0.0257135 6.44004 -3.3273 0.0532759 0.220757 0.212374
214 1 0.666137 0.12845 -0.00243301 1.89759 -3.2941 -0.224608 -0.359945 -0.0733088
220 1 0.690795 0.128182 0.0240358 5.81623 -3.27215 0.266511 0.0433276 -0.137482
224 1 0.732304 0.127809 0.0164791 5.89801 -3.33806 0.185486 -0.0630615 0.121248
223 1 0.762866 0.104698 0.0186556 6.1897 -3.28538 -0.212728 -0.244391 -0.102702
228 1 0.792453 0.126204 0.0183536 0.249112 -3.3123 0.0187122 0.406779 -0.123936
1822 1 0.758738 0.129649 0.0395431 6.98242 -3.34885 0.104273 -0.033626 0.0186547
1825 1 0.78936 0.106083 0.0402528 7.33239 -3.27816 0.0606002 -0.167891 0.589507
227 1 0.822398 0.102708 0.0213094 0.16774 -3.32114 0.057657 -0.14267 -0.0930856
232 1 0.850986 0.126533 0.0210613 0.39999 -3.31352 0.0664531 -0.208869 0.33457
1826 1 0.819439 0.127976 0.0417222 0.165662 -3.31858 -0.037349 0.0651638 0.00599138
1829 1 0.84853 0.104475 0.0435542 0.557952 -3.34462 0.0987223 -0.228651 0.324392
229 1 0.852844 0.099884 0.000192579 0.258897 -3.32378 0.140625 -0.0165415 0.157817
235 1 0.936646 0.100996 0.0309905 0.465159 -3.34389 0.0658763 -0.267566 -0.225091
231 1 0.880383 0.10159 0.0239864 0.221556 -3.33416 -0.0720401 -0.237615 0.110135
236 1 0.909447 0.124393 0.025706 0.467816 -3.32734 -0.17435 0.132068 0.24005
234 1 0.941022 0.122789 0.00760648 0.253257 -3.32605 -0.168281 0.172643 -0.159802
233 1 0.912664 0.0991533 0.00455175 0.340945 -3.35139 -0.352539 -0.0252979 0.15496
230 1 0.882482 0.122969 0.00259869 0.173893 -3.33587 0.0901432 0.236232 -0.34446
239 1 0.993157 0.100181 0.0343279 0.457234 -3.33778 0.551708 -0.15616 0.140472
240 1 0.966023 0.123316 0.0329233 0.156299 -3.30337 -0.0570758 0.210442 -0.0828078
238 1 0.996664 0.123452 0.0132494 0.281871 -3.34474 0.240082 0.119052 -0.243453
237 1 0.96767 0.0993151 0.009994 0.414848 -3.35101 0.251932 -0.0077682 -0.00212067
243 1 0.0519357 0.147023 0.0409534 0.23171 -3.36453 -0.0993205 0.152731 -0.151548
244 1 0.0234322 0.171408 0.0377069 0.223549 -3.33692 -0.041893 -0.312455 -0.124413
241 1 0.0265997 0.147513 0.0150759 0.102635 -3.37406 -0.15851 -0.0656344 -0.00807119
242 1 0.0543563 0.170424 0.0169531 0.228228 -3.33214 0.281021 -0.0875382 0.116715
247 1 0.109194 0.147239 0.0456486 0.131331 -3.33689 0.0233397 0.0962162 0.065801
249 1 0.119362 0.147228 0.999995 7.46324 -3.34021 -0.0554231 0.19407 0.0214351
245 1 0.084842 0.14783 0.0198132 0.154438 -3.32575 -0.0277106 -0.0685594 0.104024
248 1 0.0793846 0.170556 0.0422288 0.36324 -3.35698 0.0962048 0.0162712 0.256692
246 1 0.114342 0.170535 0.0238674 0.403349 -3.31941 -0.246838 0.0803638 0.106241
255 1 0.182209 0.143602 0.019909 7.01206 -3.30688 0.0800938 -0.150955 0.0205748
251 1 0.143529 0.147301 0.0271994 6.71594 -3.34204 -0.153447 0.134095 -0.176459
253 1 0.158881 0.142656 0.994481 8.14123 -3.32935 0.00108932 0.0330951 0.170761
252 1 0.137533 0.169736 0.0505875 0.350312 -3.32265 -0.0179007 0.343973 -0.111205
256 1 0.170462 0.171916 0.0322677 2.45604 -3.31946 -0.0481715 0.0231273 -0.061052
250 1 0.145734 0.172845 0.00645934 3.02357 -3.30865 -0.142585 -0.236813 -0.173108
259 1 0.226575 0.149186 0.0166544 0.638754 -3.30636 0.129639 0.00366811 0.106096
260 1 0.201139 0.172227 0.0120963 5.73648 -3.25816 0.0348113 0.316704 0.363886
264 1 0.239075 0.182916 0.0101536 7.11588 -3.32528 0.303603 -0.0449738 0.0736831
1858 1 0.224799 0.171886 0.0385917 5.77791 -3.32947 -0.00491724 0.200749 -0.0346075
257 1 0.199955 0.148218 0.992765 1.9873 -3.26026 0.381087 0.0581041 -0.467252
263 1 0.266782 0.158714 0.0126629 7.46638 -3.34911 -0.0926593 -0.0458936 -0.109584
1862 1 0.264854 0.181442 0.0341388 6.89985 -3.31882 -0.326285 0.430358 0.347337
268 1 0.296205 0.184136 0.0161301 0.195396 -3.29044 0.115716 0.206215 0.0109513
1865 1 0.291235 0.159046 0.0384543 7.04201 -3.32635 0.0543716 -0.217774 0.0931953
267 1 0.323988 0.161589 0.0197398 0.124977 -3.32608 0.100143 -0.0680932 -0.167203
272 1 0.352899 0.187161 0.0241238 0.0967583 -3.34961 0.0258249 -0.0819582 0.00380804
266 1 0.328625 0.186353 0.997907 0.0860414 -3.34047 0.0670998 -0.0720041 0.167284
1869 1 0.347498 0.162396 0.0447949 0.325524 -3.29911 0.151864 -0.26464 -0.12749
1866 1 0.319229 0.184521 0.04192 0.316226 -3.30597 0.124736 0.0487298 -0.0379539
269 1 0.356635 0.163447 0.00139407 0.0876674 -3.32414 -0.0615467 0.000911197 -0.169035
271 1 0.380659 0.163286 0.0271134 0.189996 -3.31504 -0.0609184 0.34182 -0.24149
273 1 0.414684 0.165056 0.00871316 1.38255 -3.31545 -0.169351 0.381618 -0.0375966
276 1 0.409665 0.189331 0.031224 0.256944 -3.33394 0.0419705 -0.197759 -0.153023
275 1 0.437826 0.166179 0.0344464 0.940567 -3.31451 0.138057 -0.00964349 -0.288624
270 1 0.384989 0.188035 0.00571219 0.144928 -3.36751 0.220136 0.052857 -0.0604998
280 1 0.443077 0.190315 0.0124206 1.1372 -3.33208 -0.0549769 -0.223365 0.171541
279 1 0.46738 0.164507 0.0129718 6.46 -3.34523 -0.0864985 0.112024 -0.0540119
278 1 0.470411 0.187718 0.990476 6.05367 -3.29471 -0.0123859 -0.121163 -0.0280383
284 1 0.497582 0.18927 0.0180428 7.71285 -3.32731 -0.138317 -0.0131617 -0.0480224
283 1 0.507067 0.157507 0.0105503 6.90645 -3.31725 -0.276751 -0.0351847 -0.100138
288 1 0.535768 0.18238 0.0145241 6.88913 -3.31243 -0.180817 0.011001 -0.307282
285 1 0.537291 0.158267 0.991143 0.355557 -3.31328 0.306275 0.051924 -0.159104
287 1 0.563326 0.16024 0.0170286 0.45196 -3.28719 0.00291283 -0.351225 -0.0927253
291 1 0.618526 0.158818 0.0225657 0.223495 -3.31385 0.255776 0.0399364 -0.000752739
292 1 0.590709 0.182841 0.018554 0.168607 -3.30011 -0.162453 0.0619824 0.0415759
290 1 0.621471 0.181483 -0.00177157 0.155001 -3.30164 0.1942 0.146099 -0.176154
289 1 0.593403 0.160375 0.997063 0.588034 -3.29675 -0.0452057 -0.382938 -0.317064
286 1 0.563967 0.18285 0.991987 0.248072 -3.33636 -0.0572369 -0.164381 0.0134108
295 1 0.675706 0.158015 0.0285907 4.95739 -3.34796 -0.101368 0.0778538 0.026323
296 1 0.646066 0.1826 0.0236466 0.13354 -3.31469 -0.0507566 -0.0891619 0.119656
293 1 0.649855 0.157865 0.00290863 5.24405 -3.27371 -0.249424 0.225707 -0.0457839
294 1 0.67641 0.180858 0.0049515 1.26409 -3.28093 0.245316 0.133757 -0.116308
1901 1 0.732364 0.154894 0.0367141 5.0969 -3.28988 -0.0523742 -0.13423 -0.0897364
300 1 0.703032 0.180737 0.0301771 0.297681 -3.32648 0.0128693 -0.0891948 -0.0570116
299 1 0.70898 0.15332 0.0119032 4.93216 -3.22927 -0.0487494 0.0821635 0.258838
304 1 0.736198 0.176523 0.0138699 1.02378 -3.27448 0.136354 -0.205849 -0.223976
303 1 0.763206 0.15122 0.0159885 0.179111 -3.35185 0.0245008 -0.179084 0.0587285
1905 1 0.790002 0.151099 0.039688 0.278055 -3.35235 0.0838743 0.108414 -0.126106
308 1 0.792813 0.173908 0.016888 0.147951 -3.36531 0.195017 -0.174377 0.0425332
1902 1 0.76183 0.175841 0.0375151 0.47858 -3.27675 0.0857263 0.0898391 -0.175511
1906 1 0.818987 0.174189 0.0416217 0.157474 -3.367 0.237448 0.12352 -0.258693
307 1 0.821924 0.150202 0.0189314 0.304418 -3.33956 -0.115113 -0.0772227 0.381475
312 1 0.852514 0.17249 0.0219562 0.19305 -3.37157 -0.207572 0.0348413 0.0396193
1909 1 0.847651 0.150164 0.0441799 0.205497 -3.34285 0.227896 0.148431 -0.0965332
309 1 0.853695 0.148179 -0.000143233 0.198756 -3.33003 0.299327 -0.136532 -0.198642
311 1 0.880995 0.149803 0.0244085 0.587946 -3.33275 -0.099858 -0.378118 -0.118927
1910 1 0.878989 0.172067 0.0470516 0.423901 -3.33788 -0.2475 0.215637 -0.158107
315 1 0.93855 0.146929 0.0298968 0.299763 -3.34116 -0.125071 0.143614 -0.142064
310 1 0.883818 0.170425 0.00126151 0.148052 -3.33264 -0.234854 -0.0872706 -0.0065654
316 1 0.910271 0.170956 0.0254395 0.315294 -3.3226 -0.0435038 -0.0206582 0.230715
314 1 0.940233 0.169321 0.005608 0.285956 -3.32346 -0.100958 0.332036 0.189702
313 1 0.911949 0.146523 0.00354253 0.183741 -3.36338 -0.0193956 -0.122162 0.142069
317 1 0.967852 0.146951 0.00932392 0.180488 -3.32556 0.242551 -0.0825569 0.102748
319 1 0.993206 0.147595 0.0346627 0.235365 -3.38056 0.302724 -0.0560766 -0.0257406
320 1 0.965203 0.171149 0.0313073 0.134423 -3.33701 0.129474 0.0416435 -0.0679596
318 1 0.996524 0.170548 0.012256 0.183107 -3.34773 0.123841 0.0155527 -0.0867487
321 1 0.0261477 0.192952 0.0145695 0.475484 -3.31914 -0.0384979 0.403291 -0.138195
323 1 0.0511304 0.195065 0.040092 0.236407 -3.34355 0.140224 -0.094434 -0.0880093
322 1 0.053713 0.217071 0.0163405 0.219325 -3.34383 0.0996193 0.0628213 0.116132
324 1 0.0225174 0.219171 0.0357658 0.292783 -3.31756 0.0544218 -0.330644 0.125494
327 1 0.108746 0.193689 0.0466045 0.175501 -3.36221 -0.0411156 0.128635 -0.0448577
328 1 0.0789311 0.218237 0.0426386 0.165756 -3.33957 0.126333 -0.264877 -0.141028
325 1 0.0840564 0.193177 0.0208181 0.468133 -3.338 -0.187661 0.198784 -0.128776
326 1 0.111426 0.217163 0.0222877 6.14106 -3.35178 0.0133581 0.093843 0.0779494
329 1 0.14182 0.195886 0.0286419 0.620528 -3.28536 -0.132446 -0.236022 -0.253649
335 1 0.174796 0.195444 0.0105949 4.89518 -3.25063 -0.140824 0.30957 0.258323
332 1 0.138052 0.21731 0.0502449 2.20931 -3.29206 -0.24009 0.0138182 -0.0144154
336 1 0.172722 0.2204 0.033065 7.94945 -3.27122 0.162988 0.0892485 0.215061
330 1 0.148996 0.222384 0.0105259 7.12601 -3.24568 -0.165689 -0.110189 -0.252887
1937 1 0.198403 0.196087 0.0364035 6.7185 -3.30526 0.0956141 -0.0400853 -0.0785258
339 1 0.212569 0.208123 0.00919742 7.96108 -3.28984 -0.253558 0.0358216 -0.0144757
340 1 0.210716 0.23066 0.0317061 10.3394 -3.25553 -0.169868 -0.298907 -0.000777293
344 1 0.241863 0.232203 0.0121299 0.312424 -3.27792 -0.24136 0.0261977 0.177052
1941 1 0.237138 0.205599 0.0324881 7.24884 -3.34192 0.199164 -0.019224 0.320179
343 1 0.269605 0.20894 0.0133961 0.345415 -3.32904 -0.0804555 -0.249647 0.250088
348 1 0.298129 0.233038 0.019491 0.147592 -3.33479 -0.0615042 0.148264 -0.103618
1942 1 0.2647 0.231803 0.0372442 0.303525 -3.31273 0.0119591 -0.137435 0.0392183
1945 1 0.293257 0.208339 0.0387094 0.335791 -3.31607 -0.191089 -0.111562 0.192403
342 1 0.27296 0.234559 0.994116 0.362213 -3.30029 0.1965 -0.327983 -0.0906836
347 1 0.326163 0.210401 0.0224516 0.414835 -3.34777 -0.0216824 -0.0883639 -0.450601
349 1 0.357884 0.211827 0.00197561 0.298901 -3.3513 -0.0465236 -0.173778 0.300569
352 1 0.354222 0.235162 0.0264998 0.140905 -3.32436 -0.126988 -0.152785 -0.0285168
346 1 0.330848 0.235385 0.00118303 0.201344 -3.32478 -0.232688 -0.341143 0.0108668
355 1 0.414146 0.212238 0.00924117 0.200815 -3.34222 -0.136314 -0.0238357 0.122076
351 1 0.381502 0.211603 0.0287591 0.0878439 -3.33871 0.00536164 -0.127359 -0.269689
356 1 0.384986 0.236619 0.00710919 0.410725 -3.32396 0.341166 -0.36173 0.184786
1954 1 0.410007 0.234582 0.0322601 0.430758 -3.3516 0.190726 0.120981 0.125235
360 1 0.44272 0.235741 0.0141692 0.100074 -3.35247 0.0164469 0.0336909 0.0778552
359 1 0.472125 0.213369 0.0167178 0.832954 -3.31196 -0.244592 0.0564252 0.100759
1957 1 0.439 0.212302 0.0364338 0.19313 -3.34174 -0.144475 0.119603 -0.304986
358 1 0.47538 0.238083 0.995696 2.51975 -3.29707 0.00180331 0.00479035 -0.212212
361 1 0.498222 0.212944 0.994293 6.38245 -3.30245 0.181862 -0.1961 -0.0306196
363 1 0.526976 0.211806 0.024382 6.25886 -3.27897 -0.463446 0.0315512 0.136937
364 1 0.499173 0.236828 0.0218704 0.503214 -3.30693 0.200184 -0.246145 0.0544088
368 1 0.556384 0.233035 0.03046 1.27323 -3.32449 0.0607998 0.14916 0.0966958
362 1 0.529779 0.233411 0.00243701 6.76142 -3.26365 -0.204575 0.0406527 0.305048
365 1 0.536204 0.205322 0.988019 6.43959 -3.31336 -0.0317669 0.0786764 0.249724
371 1 0.617333 0.206336 0.0185245 0.260341 -3.30172 0.083398 -0.195406 0.0115225
367 1 0.562613 0.206717 0.014544 2.60804 -3.28527 0.0172956 -0.227316 -0.296373
372 1 0.58997 0.229858 0.0135736 0.441326 -3.31187 -0.173279 0.145637 0.00919797
369 1 0.591921 0.204972 0.9937 0.252861 -3.33914 0.0925156 0.182758 -0.303129
366 1 0.563795 0.229639 0.989363 1.13121 -3.3016 -0.0401927 -0.131762 -0.281571
373 1 0.648652 0.204398 -0.00130716 0.124367 -3.34132 0.0411402 0.0340747 -0.0605309
375 1 0.673944 0.205511 0.0251053 0.282039 -3.31318 0.140437 -0.162228 -0.11563
376 1 0.645782 0.228291 0.0198443 0.133276 -3.33054 0.199878 0.0613356 -0.0585691
374 1 0.678272 0.226535 1.00076 0.266556 -3.33658 -0.0682941 0.16256 0.0372996
380 1 0.705556 0.225826 0.0279377 1.59079 -3.32239 -0.205792 0.0547445 -0.484659
377 1 0.705358 0.202449 0.0048545 1.65182 -3.34782 0.231552 0.170915 0.210118
379 1 0.732436 0.201618 0.0314424 0.642424 -3.32282 -0.104334 0.284805 0.105778
378 1 0.732959 0.225096 0.00347757 6.15219 -3.32094 0.0913265 0.103183 0.299261
387 1 0.82307 0.195772 0.0177373 0.263689 -3.36803 -0.0951152 0.11117 0.239677
383 1 0.765992 0.197735 0.0151612 1.96068 -3.28748 -0.108425 -0.0770971 -0.470903
384 1 0.760564 0.223817 0.0309959 1.22247 -3.32224 -0.0469911 0.317599 0.145968
388 1 0.793953 0.220738 0.0146634 0.854966 -3.26826 0.0889949 -0.13901 0.323718
1989 1 0.849055 0.197227 0.0431104 0.114568 -3.37574 -0.0714399 -0.178512 -0.0300561
391 1 0.881195 0.195019 0.0238225 0.123411 -3.33477 -0.109456 0.0992902 0.0687657
392 1 0.852125 0.219747 0.0204655 0.0998841 -3.35563 -0.0734024 -0.0966865 -0.0154023
1990 1 0.878382 0.219696 0.0452776 0.0832076 -3.36782 -0.0613033 -0.0994005 0.10647
390 1 0.882967 0.217547 0.000761141 0.134736 -3.36744 0.165123 0.283755 0.12935
389 1 0.854701 0.194863 0.999092 0.103378 -3.31886 -0.0242666 -0.0646586 0.0909343
393 1 0.910638 0.193605 0.00383236 0.285084 -3.3315 0.43114 0.300329 -0.157991
395 1 0.937813 0.195068 0.0276117 0.189928 -3.35237 0.081721 -0.0158561 -0.0372396
396 1 0.910036 0.219447 0.0264105 0.331994 -3.34887 -0.123021 -0.249695 -0.280387
394 1 0.941385 0.218447 0.00576594 0.210468 -3.37454 -0.247213 0.00232203 0.0195974
399 1 0.995292 0.194844 0.0334166 0.128197 -3.35156 -0.185586 0.0511039 0.0412637
397 1 0.969096 0.194604 0.00750599 0.2823 -3.35937 -0.0451735 -0.0765032 0.353217
400 1 0.96714 0.218827 0.0301221 0.135127 -3.35945 0.0014622 -0.0288854 0.00961484
398 1 0.999282 0.218494 0.010382 0.342103 -3.35178 -0.221952 -0.063574 0.0803988
403 1 0.0496491 0.241502 0.0384628 0.299257 -3.31975 0.279285 0.146049 0.0489299
401 1 0.0258207 0.243881 0.0129664 0.741221 -3.30172 0.0168776 -0.453826 -0.045045
404 1 0.0229406 0.26607 0.0364264 0.296048 -3.31505 -0.0764415 0.0155951 -0.11587
402 1 0.0544148 0.266001 0.0150343 7.82243 -3.34183 0.0198767 -0.163813 -0.0020104
405 1 0.081837 0.240739 0.0182211 7.24492 -3.37878 0.105844 -0.0141584 0.0493864
407 1 0.108188 0.240021 0.0445438 7.20265 -3.3179 -0.158899 0.0153513 -0.170553
409 1 0.121769 0.24714 0.0127026 0.579836 -3.32856 -0.240965 -0.00821176 -0.0661864
408 1 0.0791191 0.263888 0.0404189 7.47493 -3.36451 -0.047004 0.0392492 0.143454
412 1 0.118146 0.270776 0.0361061 0.18106 -3.31818 0.196973 -0.0635719 -0.00886883
406 1 0.0936039 0.272574 0.0115146 0.328263 -3.29511 -0.0391072 -0.332699 -0.276766
410 1 0.133386 0.278117 0.00724999 3.02603 -3.34376 0.0717942 0.125901 -0.0118895
411 1 0.145363 0.245838 0.037765 1.49884 -3.2876 0.262178 -0.0330429 -0.0910343
415 1 0.184149 0.253082 0.0349538 7.44765 -3.26784 0.000697918 0.188433 -0.086913
416 1 0.157686 0.277406 0.0325436 2.7408 -3.31846 0.0950253 0.0841595 0.0175469