ITEM: TIMESTEP
5750
ITEM: NUMBER OF ATOMS
32000
ITEM: BOX BOUNDS pp pp pp
2.3252457084279619e+00 7.8674754291566884e+01
-8.5225354875169756e-01 8.1852253548746262e+01
-8.5207679399324832e-01 8.1852076793988630e+01
ITEM: ATOMS id type xs ys zs c_csym c_peratom fx fy fz
8 1 0.0502728 0.0249486 0.0243366 0.0509585 -3.34805 -0.0889778 -0.0139075 0.0933041
83 1 0.025064 0.0498491 0.0247239 0.0135043 -3.34859 -0.017725 0.00589771 0.0427718
1602 1 0.0251413 0.0250765 0.0499312 0.00803025 -3.345 0.0215319 -0.0535053 -0.0239406
1685 1 0.0499914 0.0495721 0.0495635 0.057214 -3.33577 -0.0291866 0.191359 0.0778422
12 1 0.0996885 0.0251207 0.0248329 0.0226627 -3.34894 0.0451588 -0.0464521 0.053503
87 1 0.0748951 0.0500006 0.0250418 0.0227361 -3.34104 0.00296453 -0.00995734 -0.0828807
1606 1 0.0744702 0.0252314 0.0502614 0.0698635 -3.33829 0.205883 -0.0624303 -0.0769829
1689 1 0.0998126 0.0498442 0.0496956 0.0507552 -3.33744 -0.0295997 -0.00548521 0.15074
6 1 0.0754202 0.0247255 -0.000433936 0.0559983 -3.33977 -0.0529664 0.081513 -0.00248384
7 1 0.0749918 0.000181092 0.0249125 0.0218401 -3.34531 0.0101098 -0.0617728 0.0252296
16 1 0.149811 0.0252775 0.0247124 0.036545 -3.34899 0.0345253 -0.0763117 0.0951357
91 1 0.125125 0.0500805 0.0254123 0.0667138 -3.33709 -0.0607971 -0.0403114 -0.176402
1610 1 0.124706 0.0251275 0.049955 0.0152721 -3.35619 0.118983 -0.0379195 0.050044
1693 1 0.149667 0.0504482 0.0503034 0.0473123 -3.33685 0.102283 -0.179663 -0.0101877
93 1 0.149617 0.0497737 -0.000316709 0.049295 -3.34952 0.0623727 0.120625 0.109604
1613 1 0.150182 0.00022305 0.0498056 0.0224682 -3.35775 -0.0860894 0.0230458 0.0630751
11 1 0.124908 0.00012207 0.0250432 0.0128338 -3.34441 -0.0410693 0.0162948 0.0149189
20 1 0.200081 0.0254083 0.0250674 0.0300469 -3.34673 -0.0430557 -0.0855624 0.0480316
95 1 0.174472 0.0499476 0.025127 0.041845 -3.35039 0.0590862 0.0469467 -0.00594325
1614 1 0.175093 0.025136 0.0499072 0.0203621 -3.35612 -0.0855011 0.0235484 -0.0352782
1697 1 0.200054 0.0502574 0.0499893 0.0219811 -3.3577 -0.0660277 -0.0414028 -0.0384217
15 1 0.174849 -0.000156937 0.0249625 0.022344 -3.35264 0.0152353 0.103082 -0.00828617
14 1 0.175521 0.0251644 7.26697e-05 0.0862368 -3.34727 -0.166006 -0.0127412 0.0196837
1617 1 0.199869 -4.93084e-05 0.0499434 0.0116283 -3.34782 -0.0278786 0.0505714 -0.0343434
24 1 0.250001 0.0252144 0.0250273 0.0175166 -3.34871 0.0391913 -0.0961419 -0.0178988
99 1 0.225327 0.0500465 0.0248133 0.0359157 -3.33711 -0.0702714 0.0548755 0.0649831
1618 1 0.225213 0.0248939 0.0498302 0.0228833 -3.34696 -0.0748183 0.0539238 0.0318958
1701 1 0.249862 0.0502524 0.0498345 0.0200463 -3.35615 0.0843282 -0.0137309 0.0225253
103 1 0.275314 0.0497469 0.0248533 0.0344587 -3.34416 -0.0851094 0.100164 0.0930656
1622 1 0.275036 0.0247002 0.0500781 0.0295044 -3.34972 0.00593433 0.0583488 -0.105869
19 1 0.224777 5.00454e-05 0.0248845 0.00502755 -3.34899 0.0460486 0.0390807 -0.00193
22 1 0.275411 0.0249294 0.00034636 0.03221 -3.35134 -0.0734346 -0.0405972 -0.0823784
1621 1 0.249969 -3.29914e-05 0.0497948 0.003988 -3.34894 0.00625256 -0.0056365 0.00495071
28 1 0.300443 0.0251586 0.0249288 0.031911 -3.34611 -0.0961748 -0.0885635 0.0705712
1705 1 0.299658 0.0500028 0.0499559 0.026585 -3.3437 0.0636258 -0.00503626 -0.0383854
107 1 0.325146 0.0500738 0.0250704 0.0200444 -3.34973 0.0174673 0.0092721 -0.010777
1626 1 0.325085 0.0247738 0.0498764 0.0176812 -3.35085 -0.0215433 0.0724417 0.0670888
26 1 0.325117 0.0249229 -0.000142838 0.0142225 -3.33824 0.0509824 0.0467327 0.00681286
27 1 0.324894 0.000204536 0.0247102 0.0414367 -3.34675 0.11921 -0.112189 0.121196
32 1 0.350061 0.0250269 0.0250834 0.00908189 -3.35572 0.0512254 -0.035114 -0.0311802
1709 1 0.350331 0.0499803 0.0498771 0.0157433 -3.34533 -0.0982581 -0.000775324 0.0375861
111 1 0.375288 0.05011 0.0250386 0.0122096 -3.34974 0.00382791 -0.0385119 -0.0291573
1630 1 0.375283 0.0254595 0.0500981 0.0457689 -3.34545 -0.0394461 -0.133166 -0.0251727
31 1 0.375274 -0.000112258 0.0250493 0.0172986 -3.34787 -0.0844719 0.0989025 -0.0134118
30 1 0.375141 0.0252021 -3.24872e-05 0.0135108 -3.34785 0.025346 -0.0235009 0.0505928
36 1 0.400361 0.0251172 0.0253607 0.0313956 -3.34624 -0.101981 -0.0183845 -0.0914736
1713 1 0.400193 0.0501478 0.0506212 0.0438294 -3.3399 -0.0105412 0.0322821 -0.102979
115 1 0.425063 0.0496597 0.0252946 0.0332627 -3.34548 -0.0373759 0.117826 -0.0857782
1634 1 0.424945 0.0252038 0.0502069 0.0235846 -3.34318 0.0858061 -0.142384 -0.0235574
113 1 0.400309 0.0499433 -0.00020838 0.0275172 -3.34355 -0.0500567 -0.0431786 0.114863
34 1 0.424824 0.0246499 -0.000169126 0.0483282 -3.35537 0.0570052 0.105231 -0.0102362
35 1 0.425119 0.000117794 0.0247585 0.02384 -3.3435 0.00181754 0.0274595 0.0770147
40 1 0.450204 0.0250353 0.0249814 0.00853705 -3.35355 -0.0175362 -0.00859885 -0.00814647
1717 1 0.449752 0.0502081 0.0499172 0.0281888 -3.33747 0.0694171 -0.0294062 0.0184608
119 1 0.475184 0.0502993 0.0251314 0.0224226 -3.34001 -0.0599036 -0.0803187 -0.036852
1638 1 0.475207 0.0253387 0.0499312 0.0233507 -3.34664 -0.0609603 -0.0594104 0.104111
117 1 0.450108 0.0500471 7.23309e-05 0.0106666 -3.35338 -0.0482192 -0.070041 2.29492e-05
1637 1 0.450226 1.36412e-05 0.0498953 0.0243399 -3.35431 -0.0348425 0.119686 0.0744074
38 1 0.475224 0.0252569 -1.66078e-05 0.0153747 -3.34255 -0.040211 -0.03872 0.0750212
1721 1 0.499647 0.050171 0.0502775 0.0297744 -3.34471 0.110044 -0.0463107 0.0278156
44 1 0.500041 0.0250379 0.0252229 0.014698 -3.34084 0.0216123 0.0532819 -0.0713228
123 1 0.524661 0.0501185 0.0251665 0.026672 -3.35571 0.0691699 0.0248183 -0.0684739
1642 1 0.525147 0.025252 0.0503224 0.0134707 -3.34199 -0.0643121 -0.00770243 -0.0379301
48 1 0.549885 0.0253631 0.0250408 0.0264392 -3.34781 0.0562416 -0.0684514 -0.0385651
1725 1 0.550256 0.0498049 0.0500073 0.022594 -3.34583 -0.0680355 0.0815566 -0.0221507
43 1 0.524967 0.00049064 0.0250281 0.0255407 -3.35024 0.00474998 -0.10437 0.00444497
45 1 0.549815 0.000136987 -0.0003241 0.0263273 -3.35035 0.0750739 -0.0141062 0.0884059
42 1 0.525216 0.025327 0.000111716 0.0276247 -3.35998 -0.0853097 0.00321208 -0.0656163
127 1 0.575029 0.0499521 0.0249436 0.00423069 -3.34774 0.00300513 0.0099462 -0.00947401
1646 1 0.574992 0.0248514 0.0500648 0.0110034 -3.34774 0.0390394 -0.0156125 -0.0277323
52 1 0.599813 0.0248383 0.0250061 0.00561136 -3.35116 -0.0298379 -0.00454337 -0.00396486
1729 1 0.599848 0.0499361 0.0501477 0.00898317 -3.34006 -0.04615 -0.00707595 -0.0143212
46 1 0.575128 0.0248685 -9.06143e-05 0.0139883 -3.35081 -0.108629 0.00965123 0.00989153
129 1 0.599722 0.0497361 -0.000207472 0.0322222 -3.34466 0.0314418 0.033297 0.0640145
131 1 0.62502 0.0497121 0.0248642 0.0240687 -3.34238 -0.0144296 0.0225048 0.0335198
1650 1 0.624415 0.0252496 0.0500451 0.0441414 -3.34762 0.129347 -0.109162 0.00521842
56 1 0.650013 0.0247401 0.0251254 0.0140111 -3.34889 -0.0232329 0.0487938 0.0464921
1733 1 0.649488 0.0500082 0.0502546 0.0376149 -3.35603 0.157973 -0.0203881 -0.0247153
1653 1 0.649592 -0.000459498 0.0498537 0.0468923 -3.35821 0.00792793 0.150827 0.0319514
50 1 0.625152 0.0249822 0.000156319 0.0149311 -3.34704 -0.0694875 -0.0413132 0.0232377
133 1 0.650375 0.0498129 0.000371355 0.0317961 -3.34769 -0.0382414 0.0210294 -0.0652793
135 1 0.675056 0.0498802 0.0250575 0.0132403 -3.3437 -0.0259182 0.0224632 0.0302653
1654 1 0.674974 0.0250882 0.0500377 0.0134372 -3.35569 -0.0628569 -0.0424949 0.0281495
60 1 0.699725 0.0250173 0.0249518 0.0310999 -3.34843 0.126246 -0.0588512 -0.0304044
1737 1 0.700214 0.049616 0.0500704 0.0248824 -3.33999 -0.0349552 0.0964559 0.0213625
54 1 0.675181 0.0245087 -3.91512e-05 0.0443791 -3.34169 -0.0558186 0.107674 0.0237511
57 1 0.700291 -0.000265045 -0.000153698 0.0199662 -3.34339 0.0358132 0.0129766 0.0740616
139 1 0.724636 0.0500005 0.0248978 0.0294962 -3.34694 0.0814246 -0.0420492 -0.0151869
1658 1 0.725138 0.0252279 0.0499647 0.0225741 -3.3481 -0.0406477 -0.0976104 -0.0205997
64 1 0.750332 0.0252699 0.0248368 0.0391999 -3.34123 -0.0775534 -0.0781675 0.00625637
143 1 0.774877 0.049811 0.0251714 0.0244395 -3.35322 0.116595 0.114442 -0.0898993
1662 1 0.775322 0.0249305 0.0499143 0.0239441 -3.34624 -0.0522288 -0.0723905 0.00468814
1741 1 0.750072 0.0497812 0.0496321 0.0298346 -3.33701 -0.0307617 0.0678227 0.0598388
63 1 0.774795 -0.000262334 0.0249419 0.0394768 -3.34843 0.100257 0.111602 0.0475033
1661 1 0.7497 0.000158827 0.0497168 0.0376687 -3.3496 0.035692 -0.0179658 0.073235
141 1 0.749792 0.0501165 -4.42808e-05 0.0198389 -3.34014 0.0112729 -0.0231924 0.0464249
58 1 0.725345 0.0246638 -0.000184684 0.0398153 -3.35378 -0.0883829 0.0782808 0.0761324
68 1 0.800123 0.0248511 0.0249024 0.00932919 -3.34849 -0.0697756 0.021331 0.00996023
147 1 0.825169 0.049866 0.025077 0.0206757 -3.34688 -0.114473 0.0601248 -0.039185
1666 1 0.824959 0.0251216 0.0499607 0.0168308 -3.34117 0.0114934 -0.0493511 0.067133
1745 1 0.800039 0.049879 0.0499592 0.00755675 -3.34131 0.0108097 0.0283324 -0.00906798
67 1 0.824925 -0.000222531 0.0248979 0.0221662 -3.35242 0.0994521 0.046724 0.0316459
72 1 0.850107 0.0252172 0.025474 0.0657404 -3.34467 -0.076992 -0.157338 -0.138237
151 1 0.87511 0.0499276 0.0249706 0.0114244 -3.33973 -0.00485595 0.0306262 0.0678255
1670 1 0.875441 0.0247251 0.0496777 0.0507194 -3.34621 -0.00423627 0.134159 0.111987
1749 1 0.850127 0.0499057 0.0499347 0.0107581 -3.3474 0.0198173 0.0536484 0.0805283
71 1 0.874958 4.45853e-05 0.0250362 0.0153097 -3.35169 -0.00807913 -0.02102 -0.0280575
70 1 0.874774 0.0248674 0.000260108 0.0281899 -3.34715 0.0496874 -0.0426591 -0.0453482
76 1 0.900441 0.0250236 0.0246785 0.0571641 -3.3372 -0.105317 0.010958 0.130736
155 1 0.925297 0.0498841 0.0249011 0.0216238 -3.34754 0.00127927 0.0458934 0.0358004
1674 1 0.925082 0.0249628 0.050135 0.0160057 -3.35748 0.0678058 -0.0207351 0.00403148
1753 1 0.900471 0.0501245 0.0498057 0.0260958 -3.35165 -0.111323 -0.0691928 0.0203214
1681 1 1.00025 0.0500078 0.0503053 0.0314366 -3.34253 -0.0691766 -0.0448108 -0.152959
4 1 1.00049 0.0247396 0.0249138 0.023689 -3.35399 -0.105102 0.0323937 0.0162467
80 1 0.950419 0.0250133 0.0249892 0.0215798 -3.35042 -0.0654307 -0.00778415 0.0690983
159 1 0.975383 0.0496903 0.0248983 0.0266473 -3.35743 -0.0197847 0.0714387 0.0811582
1678 1 0.975215 0.0247039 0.0502216 0.0152756 -3.35617 0.0561261 0.080431 -0.0487755
1757 1 0.950136 0.0500864 0.0501512 0.0129277 -3.34788 -0.00264861 -0.0580985 -0.0945062
88 1 0.0500274 0.0749417 0.0249287 0.010215 -3.33592 0.0134529 -0.00664544 0.0282158
163 1 0.0252239 0.100068 0.0245714 0.0252038 -3.34638 -0.0265694 0.0284273 0.0922586
1682 1 0.0250704 0.0750673 0.0495731 0.0209991 -3.34605 -0.00172319 0.00825136 0.105559
1765 1 0.0500384 0.0997922 0.0498661 0.013425 -3.35245 -0.0448128 0.0154154 0.0118985
161 1 9.44447e-05 0.100057 -0.000261549 0.0113641 -3.35056 0.0291806 -0.0493813 0.0306363
92 1 0.100063 0.0747867 0.025176 0.014127 -3.34866 0.00728183 0.0680283 -0.0468309
167 1 0.0750878 0.099868 0.024807 0.0157683 -3.36047 -0.013933 0.0258048 0.0631447
1686 1 0.0752302 0.074908 0.0498728 0.0197947 -3.34741 -0.100847 0.0241282 0.0306147
1769 1 0.100121 0.100142 0.0504264 0.0422543 -3.34217 -0.0530472 -0.0475821 -0.122367
96 1 0.149586 0.0747191 0.0248549 0.0369504 -3.34646 0.0280198 0.0991667 -0.00510753
171 1 0.125016 0.0998377 0.0255762 0.0436891 -3.34912 -0.0563903 0.00660331 -0.135242
173 1 0.149762 0.0997572 -8.69182e-05 0.0146615 -3.36303 -0.0126994 0.0670321 -0.0122206
1690 1 0.124704 0.0747426 0.0506004 0.0726164 -3.33672 0.0286601 0.111807 -0.104763
1773 1 0.149779 0.100037 0.0500321 0.0107581 -3.34513 0.0612813 0.0147095 0.012093
90 1 0.12454 0.0751937 -0.00015523 0.051373 -3.34518 0.11755 -0.116412 0.0683738
100 1 0.199878 0.0750813 0.0250898 0.0134856 -3.34667 -0.0184591 -0.0247461 0.0128207
175 1 0.174848 0.0997619 0.0247464 0.0212601 -3.35344 -0.0480803 0.0321827 0.0345298
1694 1 0.174373 0.0750775 0.0500147 0.0398653 -3.35169 0.187333 -0.00521869 -0.0385225
1777 1 0.199799 0.100185 0.0498105 0.015184 -3.34528 0.0146725 -0.106518 -0.00737811
177 1 0.200048 0.10026 -0.000178144 0.0284301 -3.33881 -0.0544474 -0.0620603 0.0422425
104 1 0.250003 0.0754228 0.0248201 0.0282952 -3.35834 0.0605942 -0.0498791 0.0253415
179 1 0.224846 0.100157 0.0248263 0.00924862 -3.35349 0.0534729 -0.00880551 0.0492927
1698 1 0.224747 0.0748587 0.0497518 0.0297275 -3.34701 0.0623569 0.0852742 0.0215302
1781 1 0.250163 0.0999521 0.0498599 0.0240608 -3.33912 -0.072316 0.012088 -0.0864543
183 1 0.275537 0.100268 0.0250006 0.0352584 -3.3509 -0.0790666 -0.0200942 0.0131476
1702 1 0.275154 0.0753553 0.0496678 0.0296276 -3.35941 -0.00761997 -0.081962 0.0239079
108 1 0.300122 0.0749553 0.0246306 0.020289 -3.34014 0.00126905 -0.010835 0.0826646
1785 1 0.300695 0.100212 0.0499073 0.0773558 -3.34795 -0.166707 -0.0539133 0.0411701
187 1 0.324868 0.100071 0.0247626 0.0337889 -3.3451 0.110579 -0.0415661 0.0209977
1706 1 0.324972 0.0748295 0.0497085 0.0275438 -3.35714 0.0549069 0.0475004 0.0273659
185 1 0.299898 0.0997606 -3.57541e-05 0.0200924 -3.34222 0.0797883 0.0207355 -0.0836004
106 1 0.325254 0.0746551 -0.000155827 0.0295482 -3.35119 -0.0320749 0.0743516 -0.0152963
112 1 0.350502 0.0751825 0.0246585 0.0511527 -3.35234 -0.0648779 -0.0399782 0.0892153
1789 1 0.350306 0.0997253 0.0500256 0.0313526 -3.35326 -0.100733 0.016522 -0.00461973
189 1 0.350108 0.100036 0.000211226 0.0241696 -3.35179 -0.0271135 0.0363023 -0.0836436
191 1 0.375239 0.100428 0.024939 0.0457082 -3.34519 -0.000607513 -0.120956 0.0302899
1710 1 0.375054 0.0749431 0.0502896 0.0118206 -3.34225 0.0567836 0.0473115 -0.0334208
116 1 0.39992 0.0748199 0.025339 0.0229355 -3.35774 0.0145471 0.0584001 -0.0335758
1793 1 0.399879 0.100204 0.0504693 0.0171375 -3.34183 -0.0520201 -0.062579 -0.0644436
195 1 0.424529 0.10033 0.0253275 0.044434 -3.35909 0.081059 -0.0983155 -0.0397746
1714 1 0.425001 0.0754789 0.0502412 0.047748 -3.35152 -0.0178643 -0.0890741 -0.0385921
120 1 0.449901 0.0748501 0.0249563 0.0294027 -3.35754 -0.0338892 0.101505 0.0608613
1797 1 0.45036 0.100051 0.050034 0.0435745 -3.34589 -0.146376 -0.0328762 0.0235737
199 1 0.474818 0.100122 0.0251431 0.0162179 -3.3443 0.0288322 -0.0567926 -0.0512595
1718 1 0.475064 0.0749076 0.0502903 0.0272412 -3.34167 -0.0284849 0.0793266 -0.0612115
1801 1 0.50004 0.100015 0.0500278 0.0128064 -3.35001 -0.0281225 -0.0418516 0.00550026
124 1 0.499495 0.0751969 0.0246953 0.0550685 -3.34472 0.115642 0.00298446 0.0720319
203 1 0.524957 0.0998762 0.0251382 0.0140131 -3.34681 0.019791 -0.0205724 -0.0209466
1722 1 0.524747 0.0746625 0.0497961 0.0424292 -3.36098 0.0664391 0.0912425 0.0654447
128 1 0.550101 0.0751187 0.0250088 0.0182602 -3.35323 -0.00988599 -0.0651472 -0.0460581
1805 1 0.550407 0.0999996 0.04976 0.0360138 -3.34906 -0.0938513 -0.0731145 0.075739
205 1 0.550028 0.100266 8.20149e-05 0.0274167 -3.35367 0.00754249 -0.0766516 -0.00956711
207 1 0.575427 0.0996886 0.0248242 0.0324273 -3.34838 0.0064739 -8.37685e-05 0.0112326
1726 1 0.574925 0.0749654 0.0498823 0.0148492 -3.3445 0.0282231 -0.0391901 0.0322519
132 1 0.600225 0.0745947 0.025111 0.0262531 -3.34762 -0.0732493 0.0698847 -0.0786322
1809 1 0.599986 0.0998188 0.050274 0.00879125 -3.34915 0.00125503 0.0382584 -0.0490112
211 1 0.625056 0.10014 0.0251997 0.0178028 -3.3525 0.0339761 -0.0530987 0.067569
1730 1 0.624614 0.0747041 0.0499993 0.0353261 -3.3419 0.104263 0.127684 0.0699644
136 1 0.650106 0.0749292 0.0253867 0.0331672 -3.35291 -0.0124125 0.00626131 -0.0477254
1813 1 0.650363 0.0997379 0.0504247 0.0469485 -3.3516 -0.136679 -0.000237308 -0.0846005
213 1 0.649745 0.100347 0.000323373 0.0323065 -3.35152 0.0283284 -0.0721273 -0.0747902
215 1 0.674758 0.100112 0.0249495 0.0249497 -3.34381 0.0246524 -0.0177595 0.0522581
1734 1 0.675443 0.0748011 0.0500337 0.0382498 -3.35492 -0.106309 -0.0531281 0.0572791
140 1 0.69985 0.074872 0.0248816 0.0142868 -3.35029 0.0139639 0.0599662 0.0234109
1817 1 0.699878 0.0998476 0.0499997 0.0133453 -3.35032 -0.00720921 -0.00329988 0.0274486
217 1 0.699731 0.100108 0.000310202 0.0247819 -3.34815 0.0575695 -0.0244802 -0.0415617
134 1 0.674871 0.0751374 -0.000264652 0.0360084 -3.34666 -0.00361147 0.00992277 0.124101
219 1 0.72492 0.100061 0.025194 0.0153433 -3.34938 -0.0183768 -0.0585872 -0.0227212
1738 1 0.725109 0.074984 0.0499178 0.0189671 -3.34669 -0.110186 -0.0675891 -0.013885
144 1 0.749771 0.0749548 0.0249015 0.0180084 -3.35098 0.0454065 -0.0230826 0.0479679
223 1 0.774815 0.100012 0.0255547 0.0442839 -3.34451 0.0380684 -0.0384241 -0.138251
1742 1 0.77504 0.0749454 0.0499235 0.0186613 -3.33641 -0.0595829 -0.0565064 0.0141055
1821 1 0.749978 0.0993596 0.050485 0.079043 -3.33872 0.0297181 0.165504 -0.0553009
138 1 0.725052 0.0752098 5.44222e-06 0.0171136 -3.35136 -0.0374813 -0.00545248 -0.0321132
148 1 0.800037 0.0753581 0.0254111 0.0720024 -3.35234 -0.0449881 -0.164799 -0.152214
227 1 0.824837 0.100046 0.0246479 0.0323904 -3.35176 -0.0347228 0.0209929 0.133739
1746 1 0.825065 0.0750504 0.0497669 0.0189917 -3.35385 0.0478704 -0.016082 0.0795348
1825 1 0.799703 0.0997361 0.0502812 0.0449972 -3.34011 0.114054 0.104409 -0.0589413
225 1 0.799379 0.0996358 -0.000285231 0.0690244 -3.35081 0.0394493 0.0942682 0.115852
152 1 0.850108 0.0750588 0.0247445 0.0188639 -3.3459 -0.0645554 -0.0197047 0.104877
231 1 0.874821 0.100044 0.0246301 0.0262048 -3.34495 0.0414992 0.0190049 0.0892142
1750 1 0.875041 0.0749275 0.0498655 0.00729501 -3.35473 -0.0628909 -0.00294914 0.0330582
1829 1 0.849905 0.100237 0.0500536 0.0199018 -3.35402 0.0885089 -0.0746345 -0.0822018
156 1 0.899993 0.0752033 0.0250768 0.0244357 -3.34232 -0.0176642 -0.0592784 -0.0557815
235 1 0.925086 0.0998473 0.0246798 0.0243122 -3.34908 -0.0143962 0.0962695 0.0182172
1754 1 0.925051 0.075208 0.0497234 0.0137602 -3.33773 0.0152495 -0.0298732 0.0327041
1833 1 0.899673 0.0998242 0.0498603 0.0341597 -3.35276 0.0744149 0.0881538 0.00689698
233 1 0.899962 0.10001 -0.000323401 0.0243449 -3.35413 -0.0106703 -0.000402928 0.082383
1761 1 0.999893 0.100251 0.049878 0.0201419 -3.35025 0.0406551 -0.0668087 -0.00614845
84 1 1.00026 0.0752892 0.0250843 0.0400068 -3.34923 -0.0565947 -0.0935113 -0.0558135
160 1 0.950073 0.0751374 0.0249576 0.0150332 -3.34666 0.034125 -0.0963576 -0.0386376
239 1 0.974927 0.0998716 0.0248101 0.015994 -3.33886 0.051586 0.0452143 0.0209783
1758 1 0.975136 0.0746803 0.049943 0.0244245 -3.34536 0.00808035 0.0695633 -0.0388299
1837 1 0.950102 0.0999372 0.0496063 0.0151269 -3.34635 -0.0244045 0.046172 0.065795
237 1 0.950378 0.100047 -0.000103231 0.0209374 -3.35197 -0.099068 -0.0157942 0.000127872
158 1 0.975303 0.0748878 -7.60147e-05 0.00996147 -3.3527 -0.0035073 -0.00331101 0.00313209
162 1 0.0254278 0.125047 -0.000155508 0.0299198 -3.33672 -0.0914517 -0.0369406 0.0368553
168 1 0.0499757 0.125366 0.0248753 0.0337468 -3.34638 -0.0234833 -0.125137 0.0337003
243 1 0.0247377 0.150331 0.0247555 0.0473471 -3.34505 0.0527407 -0.0805834 0.183075
1762 1 0.0250936 0.124941 0.0499276 0.0116959 -3.35758 -0.0361547 0.0635369 -0.0276859
1845 1 0.0501877 0.149982 0.0499311 0.0122824 -3.34888 -0.0876403 -0.002375 -0.0140095
245 1 0.0500204 0.150239 6.2212e-05 0.0184394 -3.33726 0.0296599 -0.0351629 -0.024609
172 1 0.0998976 0.125082 0.0251036 0.0190517 -3.34725 -0.0150123 -0.0747338 0.0409421
247 1 0.0747305 0.150096 0.0249301 0.0175806 -3.33978 0.0984132 -0.00359544 -0.00427777
1766 1 0.0746244 0.124463 0.0500231 0.0746454 -3.33809 0.01912 0.11193 -0.040157
1849 1 0.0994451 0.149423 0.0501004 0.0839847 -3.35394 0.139322 0.134898 -0.0225162
176 1 0.149903 0.124886 0.0251226 0.0038192 -3.34707 0.0262012 -0.00904591 -0.0522308
251 1 0.124904 0.149907 0.0251916 0.0111026 -3.3525 -0.00160663 0.034883 0.00140368
1770 1 0.125089 0.124892 0.0501639 0.012824 -3.34419 -0.0223111 0.0577744 0.0355164
1853 1 0.149829 0.149823 0.0501733 0.0133786 -3.35079 0.0564345 0.045279 -0.0586222
253 1 0.149909 0.149604 0.000152701 0.0317465 -3.35007 -0.0269681 0.0810514 -0.0424049
180 1 0.199773 0.124832 0.0250412 0.0229307 -3.34395 0.012189 0.104975 -0.0769286
255 1 0.1749 0.149959 0.0249426 0.00879202 -3.34977 -0.0224425 -0.0178788 0.0147338
1774 1 0.175189 0.124991 0.0497633 0.0254613 -3.34209 -0.137574 -0.00217718 0.0466934
1857 1 0.200033 0.14984 0.0501043 0.0115103 -3.3456 -0.00994002 0.0525011 -0.0216074
174 1 0.174827 0.12494 -0.000296015 0.0130221 -3.35043 0.0179785 -0.0139103 0.0787381
257 1 0.19977 0.150353 -0.000183766 0.0533041 -3.34517 -0.0128417 -0.157428 0.0619226
184 1 0.250239 0.125189 0.0251196 0.0237041 -3.34939 -0.0187669 -0.0502643 -0.0173434
259 1 0.225148 0.150186 0.0250062 0.0283196 -3.35316 -0.0754461 -0.0191949 0.0835218
1778 1 0.225131 0.125255 0.0496718 0.027085 -3.3502 0.0263505 -0.020592 0.0524567
1861 1 0.250115 0.150469 0.0504163 0.047432 -3.34757 -0.0245678 -0.0664939 -0.0991732
263 1 0.275252 0.149842 0.0249633 0.0336066 -3.3459 -0.0683644 0.0614016 0.0298993
1782 1 0.274715 0.125099 0.0502463 0.0642078 -3.34938 0.151559 -0.0106045 -0.119271
178 1 0.224707 0.125112 0.000284959 0.0270099 -3.34585 0.0293352 -0.0204151 -0.0527505
182 1 0.275148 0.124919 -0.000297579 0.0345406 -3.34271 -0.0357825 0.0426161 0.104557
188 1 0.300398 0.125106 0.0248059 0.0267575 -3.34677 -0.0635552 0.0152369 0.0708816
1865 1 0.299891 0.150198 0.0495582 0.0630946 -3.34812 0.038277 -0.0544509 0.136339
267 1 0.324927 0.150599 0.0250042 0.0430142 -3.34834 0.0718343 -0.0961732 -0.0152769
1786 1 0.325168 0.124795 0.0501014 0.0281217 -3.34302 -0.00519302 0.0741339 -0.0348057
186 1 0.325035 0.124858 -0.000238908 0.0333966 -3.35111 0.0616017 0.042765 0.076323
265 1 0.300041 0.149992 0.000123809 0.010755 -3.34109 0.0158357 0.0592537 -0.0388526
192 1 0.34996 0.125319 0.0252768 0.0324642 -3.34734 -0.0613519 -0.0329656 -0.104322
1869 1 0.349716 0.150047 0.0500042 0.0214674 -3.3486 0.0691891 0.0761293 -0.010769
271 1 0.374851 0.150307 0.0246961 0.0485026 -3.34439 -0.00859305 -0.0292993 0.155242
1790 1 0.374673 0.124989 0.0500398 0.0268551 -3.34126 0.0695591 0.0757155 0.0485055
190 1 0.374858 0.125425 9.78347e-05 0.0282386 -3.34671 0.0404214 -0.110163 -0.024946
269 1 0.350059 0.15028 -4.25813e-05 0.0105805 -3.34636 -0.0477567 -0.0271553 0.0381312
196 1 0.399529 0.125375 0.0253338 0.0513764 -3.34171 0.0866921 -0.0520454 -0.0559442
1873 1 0.40007 0.149987 0.050275 0.025576 -3.35094 -0.134026 -0.0083125 -0.0480801
275 1 0.424856 0.149823 0.0252126 0.0169329 -3.34429 0.010288 0.0570268 -0.0442043
1794 1 0.424896 0.124805 0.050236 0.0322506 -3.3406 0.0390773 0.0438558 -0.0369128
273 1 0.400313 0.1498 -0.000168239 0.0444212 -3.34533 -0.0239327 0.0520673 0.0476702
200 1 0.449838 0.125153 0.0251851 0.0143068 -3.33668 0.00994322 -0.0616584 -0.0240201
1877 1 0.450005 0.149714 0.0496991 0.0466382 -3.34956 0.0392468 0.105764 0.0939235
279 1 0.474958 0.150077 0.0247831 0.0199426 -3.34812 0.0402581 -0.035447 0.0733857
1798 1 0.474881 0.124741 0.0498318 0.0251792 -3.34624 0.0536498 0.138589 0.0728143
204 1 0.499948 0.124718 0.0249448 0.0179337 -3.3475 -0.0272685 0.101171 0.0851791
283 1 0.524815 0.14995 0.0250654 0.0208667 -3.35132 0.0607004 -0.0431357 0.0484481
1802 1 0.525178 0.125047 0.049907 0.014251 -3.34962 -0.0502664 -0.0293192 -0.00402301
1881 1 0.499881 0.150239 0.0503112 0.0423338 -3.33933 -0.0492529 -0.178836 -0.116322
208 1 0.550478 0.124784 0.0252488 0.0284454 -3.34637 -0.0821426 0.0367688 -0.04363
1885 1 0.549976 0.14986 0.0501696 0.00660981 -3.35109 -0.012735 0.0508102 -0.0243187
202 1 0.524758 0.124886 0.000561412 0.0483097 -3.34696 0.0717204 0.0230322 -0.136942
281 1 0.499883 0.150033 0.000125219 0.0120668 -3.3492 0.0224357 -0.00303535 -0.0237904
285 1 0.550198 0.149611 0.000474898 0.0300946 -3.34845 -0.0160698 0.0302652 -0.0503183
287 1 0.575098 0.149902 0.0251695 0.00402615 -3.34818 0.0376789 0.0190021 -0.0370551
1806 1 0.575147 0.12489 0.0501166 0.00724179 -3.33848 0.0128165 -0.0135503 -0.00471904
212 1 0.600036 0.12504 0.025088 0.00717549 -3.34307 0.0261687 0.00230068 0.0359215
1889 1 0.5999 0.150106 0.0500063 0.00873347 -3.35024 0.0724882 -0.0148879 0.0437085
289 1 0.600266 0.150193 -0.000292163 0.0532394 -3.3433 -0.102697 -0.0761592 0.135735
291 1 0.625125 0.150021 0.0251601 0.0136375 -3.35219 0.00793576 0.0288351 0.0105371
1810 1 0.625008 0.124922 0.0501718 0.00852867 -3.35424 -0.0041567 0.00983025 -0.0103253
216 1 0.650077 0.125353 0.0249779 0.0173614 -3.34507 0.00966388 -0.0583908 0.0659798
1893 1 0.650185 0.150021 0.0500502 0.0103768 -3.3515 -0.042825 0.0307282 0.029272
293 1 0.649899 0.150327 -0.000335402 0.0381413 -3.34744 0.0255772 -0.100611 0.0539059
210 1 0.624977 0.125218 0.000129482 0.00961843 -3.3387 0.0282922 0.0128463 -0.0248791
214 1 0.675123 0.125401 7.87418e-05 0.0267206 -3.34047 -0.0911131 -0.0839876 0.00838027
295 1 0.674812 0.15029 0.0251102 0.0276052 -3.35564 0.0655896 -0.0339668 -0.0181523
1814 1 0.674961 0.124813 0.0504228 0.0378183 -3.34408 0.00777012 0.0587719 -0.114787
220 1 0.699823 0.125062 0.0253899 0.0299607 -3.35463 0.00436482 -0.00879311 -0.0458034
1897 1 0.700339 0.150076 0.0498997 0.0275401 -3.34946 -0.105438 -0.0230558 0.0010509
299 1 0.725036 0.149739 0.0249298 0.0106303 -3.34402 -0.0282804 0.00255853 0.0422649
1818 1 0.725202 0.124583 0.0501992 0.0257214 -3.34111 -0.0379119 0.0671635 -0.013992
224 1 0.749915 0.124533 0.025614 0.049429 -3.33744 -0.0194893 0.0683578 -0.117478
303 1 0.774456 0.149935 0.0251933 0.0227191 -3.33737 0.0458109 -0.00620597 -0.0609695
1822 1 0.774926 0.12488 0.0499108 0.0258392 -3.3469 0.0293121 0.021919 0.126449
1901 1 0.750067 0.149745 0.0501259 0.013036 -3.35064 -0.00883356 0.0528348 0.0588068
218 1 0.725127 0.124643 0.000208246 0.0216618 -3.33702 -0.0810648 0.0033768 0.0427999
301 1 0.749334 0.149514 -4.23623e-06 0.04 -3.33606 0.106124 0.109201 0.0491378
228 1 0.799702 0.125075 0.0249041 0.0186696 -3.35362 0.0381426 -0.0483076 0.0545304
307 1 0.825076 0.150073 0.0249618 0.015571 -3.34764 -0.0391445 -0.0495548 0.0172286
1826 1 0.824726 0.125059 0.0499195 0.0168256 -3.35369 0.00512062 0.019962 -0.0796938
1905 1 0.799665 0.15055 0.0496345 0.0861994 -3.3495 0.0279856 -0.183812 0.0865336
305 1 0.799848 0.149746 0.000327825 0.0206164 -3.35188 -0.0222733 0.028229 -0.0689441
232 1 0.85011 0.125029 0.0250031 0.0117504 -3.35176 -0.0637156 0.0156962 -0.00894706
311 1 0.875389 0.150036 0.0248866 0.0339667 -3.34878 -0.112398 0.00489322 0.0276879
1830 1 0.875027 0.125052 0.049897 0.00906525 -3.35066 0.00156121 -0.0207817 0.040591
1909 1 0.850057 0.15006 0.0497092 0.0145958 -3.34954 -0.000241256 -0.00822098 0.0630265
230 1 0.874933 0.124965 -0.000160662 0.0151738 -3.34377 0.0373116 -0.0204823 0.110063
236 1 0.900158 0.124884 0.0252403 0.037149 -3.34869 -0.0525426 -0.0147456 -0.097689
315 1 0.92489 0.149776 0.0251279 0.0418392 -3.34836 -0.0379582 0.116037 -0.0435511
1834 1 0.924928 0.125163 0.0499542 0.00794195 -3.35072 0.019126 -0.0711474 0.0100038
1913 1 0.899775 0.150314 0.0501571 0.0298131 -3.34765 0.05847 -0.0378597 -0.0101834
164 1 1.00006 0.124921 0.0248606 0.0076978 -3.35392 0.0185272 0.0217345 0.0422106
1841 1 0.999801 0.150333 0.0502028 0.0265488 -3.35899 0.0723109 -0.0862556 -0.0231146
240 1 0.949965 0.125238 0.0250219 0.0141715 -3.35333 0.0097857 -0.0535142 -0.0551606
319 1 0.975282 0.150028 0.0250757 0.0215376 -3.35035 -0.0363161 -0.0195701 0.00712402
1838 1 0.974903 0.12497 0.0499844 0.00799904 -3.3483 0.036559 0.0611978 -0.0367795
1917 1 0.949926 0.150366 0.0499639 0.0174105 -3.35154 0.0690026 -0.0459364 0.0105233
241 1 1.0004 0.149795 3.35809e-05 0.0254549 -3.34574 -0.106792 0.0575628 -0.0433082
317 1 0.950202 0.150381 0.000260429 0.0349903 -3.35101 -0.0989218 -0.161517 -0.00612536
248 1 0.0501239 0.17512 0.025002 0.0107617 -3.34863 -0.00284088 0.0307593 0.0237202
323 1 0.0253726 0.200389 0.0250572 0.0283804 -3.34913 -0.0435835 -0.0753197 -0.0484255
1842 1 0.0250037 0.175216 0.0500933 0.0112367 -3.34888 0.0253411 -0.0859361 -0.0319126
1925 1 0.0498467 0.200099 0.0501217 0.0184967 -3.3484 0.0674176 -0.0193329 -0.0351057
242 1 0.0250441 0.175009 0.0005022 0.0530722 -3.34703 -0.0214528 0.0606845 -0.155182
1921 1 0.000289986 0.200227 0.0498909 0.0235388 -3.34162 -0.107826 -0.0201036 -0.00232611
325 1 0.0500055 0.200065 -0.000419332 0.0392727 -3.34154 -0.00993978 -0.0437986 0.105048
252 1 0.0999855 0.174844 0.0252171 0.0157262 -3.35495 -0.0395411 0.0152763 -0.0608671
327 1 0.0749381 0.200116 0.0247935 0.00855139 -3.35564 0.0238945 -0.066149 0.0547655
1846 1 0.0749643 0.174908 0.0500575 0.0105036 -3.3465 0.0248909 0.0677604 -0.0292987
1929 1 0.0998612 0.200078 0.0501038 0.00673046 -3.34298 -0.00533207 -0.0438505 -0.0710574
256 1 0.150051 0.174932 0.0248634 0.0153238 -3.34845 -0.0417098 -0.0416542 0.0386283
331 1 0.12501 0.199718 0.0251837 0.0275325 -3.34592 -0.0848368 0.0662816 -0.0730484
1850 1 0.124828 0.175144 0.050223 0.0234659 -3.35294 0.0380684 -0.104362 -0.0503581
1933 1 0.150088 0.199961 0.0497831 0.0241256 -3.34948 0.030781 -0.00217737 0.12226
250 1 0.124719 0.17475 -0.000164478 0.0253942 -3.34649 0.074125 0.0380282 0.0996525
260 1 0.199699 0.174572 0.0252852 0.0577747 -3.35286 0.0190667 0.136933 -0.0554435
335 1 0.174949 0.200265 0.0248038 0.0271569 -3.34321 0.0433785 -0.0701649 0.00731263
1854 1 0.174835 0.175104 0.0500732 0.0167271 -3.35277 0.017587 -0.0546316 -6.97921e-05
1937 1 0.199668 0.200085 0.0499906 0.0211683 -3.34451 0.0317193 0.00135331 0.0230362
337 1 0.200141 0.199783 9.77372e-05 0.0242049 -3.35183 -0.0674675 0.0478471 -0.00465152
264 1 0.250257 0.175234 0.0251993 0.0383206 -3.35011 -0.106508 -0.0868308 0.0668751
339 1 0.224813 0.199919 0.0252135 0.00788754 -3.35094 -0.0120688 -0.0459282 -0.0314653
1858 1 0.224621 0.175021 0.0504734 0.031164 -3.34741 0.082616 0.0285522 -0.136271
1941 1 0.249529 0.200334 0.0502314 0.0264281 -3.34314 0.0260194 -0.103601 0.0226366
343 1 0.274631 0.200238 0.0255815 0.0481539 -3.34707 0.104282 -0.0162872 -0.0977043
1862 1 0.274833 0.175071 0.0504323 0.0329888 -3.35068 0.0209929 0.0303037 -0.07842
341 1 0.250021 0.199502 0.000312079 0.0519989 -3.35021 -0.0728397 0.127713 -0.0544659
262 1 0.275046 0.174967 0.00047663 0.0246641 -3.34812 -0.0149875 -0.0100033 -0.0692266