ITEM: TIMESTEP
9500
ITEM: NUMBER OF ATOMS
32000
ITEM: BOX BOUNDS pp pp pp
3.8441351364744918e+00 7.7155864863520350e+01
-1.5272838922236858e+00 8.2527283892217682e+01
-1.5264855285400714e+00 8.2526485528536199e+01
ITEM: ATOMS id type xs ys zs c_csym c_peratom fx fy fz
8 1 0.0495363 0.0247373 0.0248086 0.0404606 -3.3231 0.165131 0.0529503 0.037118
1605 1 0.0501142 -8.19075e-05 0.0499352 0.0182246 -3.33327 -0.00779671 -0.0142794 -0.0239993
4 1 0.000151267 0.0248285 0.0250485 0.01538 -3.32622 -0.104872 0.0974691 -0.00364042
3 1 0.0248119 -0.000153274 0.0251398 0.0175513 -3.31346 0.0565709 -0.0756937 -0.0365175
1602 1 0.0248322 0.0245302 0.0496877 0.0588711 -3.31288 0.0672876 0.224172 0.114059
2 1 0.02491 0.0249428 9.94148e-06 0.0134728 -3.31335 -0.0509298 0.0244652 -0.0794364
85 1 0.0498555 0.0496612 -9.05928e-05 0.012289 -3.32894 0.0599564 0.0271605 -0.0768738
12 1 0.0997917 0.0250554 0.0251497 0.0238743 -3.31646 0.0640655 0.0189144 -0.0372089
6 1 0.0750894 0.0247895 -5.18327e-05 0.0229831 -3.33016 -0.0801892 0.0369018 -0.0553911
1606 1 0.0748092 0.0254109 0.0496165 0.0633886 -3.33209 0.044031 -0.123904 0.118091
16 1 0.150158 0.025319 0.0247779 0.025428 -3.32095 -0.0598752 -0.0463397 0.0150936
1614 1 0.174622 0.0246621 0.0501243 0.0464114 -3.33692 0.0634728 0.113627 -0.00810603
1613 1 0.149794 5.28979e-05 0.0499103 0.013646 -3.31799 0.036937 0.00505832 0.0312959
10 1 0.124771 0.0252828 8.14799e-05 0.0226469 -3.33848 0.0375488 -0.0209423 -0.0408167
20 1 0.199898 0.0250261 0.0250121 0.00778277 -3.33199 0.0233821 0.0551515 0.0603833
19 1 0.224978 9.78151e-05 0.0253186 0.00694661 -3.32615 0.0136711 -0.0333268 -0.054902
1618 1 0.224594 0.0249842 0.0502765 0.0099987 -3.32931 -0.0412278 0.0600413 -0.0232312
24 1 0.249733 0.0252843 0.0254988 0.0210784 -3.33307 0.0272322 -0.0559961 -0.0493161
1622 1 0.274861 0.024953 0.0503043 0.01514 -3.33848 0.0395542 0.053463 -0.0665145
1621 1 0.249732 1.60581e-05 0.0503903 0.00882115 -3.31343 0.00830542 -0.0186774 -0.138932
1701 1 0.249529 0.0500006 0.0503102 0.0168952 -3.32487 0.0763176 0.0037371 -0.0369919
28 1 0.299758 0.024924 0.025064 0.01191 -3.33866 -0.0266983 -0.0211452 0.0691215
26 1 0.324903 0.0251859 8.5924e-05 0.013388 -3.32528 -0.0167024 -0.0315688 -0.0281093
32 1 0.350194 0.0251468 0.0251357 0.0328863 -3.32453 -0.104198 0.0429693 -0.00500581
27 1 0.325409 -5.2514e-05 0.0250697 0.040884 -3.33351 -0.123691 0.0476659 0.0657547
107 1 0.32436 0.0500482 0.0248225 0.0555629 -3.32083 0.134477 0.00620637 0.10074
30 1 0.374659 0.0253783 -7.50851e-05 0.0430581 -3.32576 0.0804435 -0.163886 -0.0154701
36 1 0.399733 0.0250025 0.0249966 0.0156369 -3.32231 0.0135449 -0.0196999 -0.0666159
111 1 0.375112 0.0500554 0.0250908 0.0174698 -3.32495 -0.0931578 0.0995152 0.0166349
1630 1 0.374982 0.0252952 0.0500664 0.0292541 -3.31992 -0.0571823 -0.017014 -0.0528999
115 1 0.424989 0.0500487 0.024944 0.0138695 -3.327 -0.0254127 0.00927054 -0.024151
35 1 0.425309 0.000391937 0.0248875 0.0521361 -3.32598 -0.0628298 -0.0962467 0.0337709
34 1 0.424752 0.0250401 -0.000131297 0.022419 -3.33011 0.0146321 0.0212508 0.0912824
40 1 0.450256 0.0250724 0.0251958 0.0318749 -3.32485 -0.0861585 0.0318642 -0.0562048
1634 1 0.424515 0.02504 0.0498974 0.0197584 -3.32466 0.0814678 -0.074485 0.0103316
1717 1 0.449556 0.0500188 0.0498644 0.017607 -3.31636 0.0624483 0.0175833 0.0294603
44 1 0.499954 0.0249343 0.0254449 0.0272059 -3.33 0.0209502 0.0690127 -0.0447789
123 1 0.525092 0.0501361 0.0251178 0.00962123 -3.33888 0.0159818 -0.0176823 -0.014646
42 1 0.524922 0.0249087 0.000230885 0.0239567 -3.33367 0.0489416 0.0397631 0.00542413
38 1 0.4752 0.0249502 0.00031922 0.0242272 -3.33281 0.0119964 0.0332535 -0.0634097
121 1 0.500008 0.0500915 0.00030638 0.0132154 -3.33234 0.00370531 -0.00453267 -0.0627483
48 1 0.55029 0.0251588 0.0248388 0.0230141 -3.33704 -0.0171585 -0.0608816 0.0262622
127 1 0.574943 0.0503538 0.0251963 0.0337614 -3.31926 0.0128626 0.0127917 -0.0847916
1646 1 0.57532 0.0252604 0.0498987 0.0257997 -3.32634 -0.101813 -0.120243 0.0270902
1725 1 0.550258 0.0500944 0.050024 0.00899666 -3.31009 -0.0322393 0.0181727 -0.0373034
125 1 0.550644 0.0502626 -0.000161657 0.0458353 -3.34258 -0.103499 -0.0716489 0.0378042
52 1 0.6002 0.0255247 0.0251729 0.0438464 -3.33132 0.0226205 -0.0995776 -0.104039
131 1 0.625716 0.0504793 0.0247612 0.0588135 -3.3226 -0.0769772 -0.0833811 0.0607998
1650 1 0.625089 0.0251989 0.0496529 0.0405878 -3.33006 -0.039512 -0.0641951 0.152359
1729 1 0.600055 0.0501282 0.0499266 0.0132511 -3.32601 0.0786031 0.0677845 0.0112673
51 1 0.62519 0.000135717 0.02539 0.0193387 -3.33595 -0.0558023 0.00432705 -0.0782869
50 1 0.625614 0.0251498 -6.35682e-06 0.0173162 -3.33209 -0.119037 0.029666 0.0656057
56 1 0.650535 0.0253264 0.0252314 0.0371683 -3.32027 -0.0571469 -0.0455208 -0.0331883
60 1 0.699925 0.0249486 0.0250283 0.0131433 -3.32969 0.014186 0.035521 0.00915423
135 1 0.675137 0.0501883 0.0250833 0.0112661 -3.33035 -0.0197292 0.0501305 0.0371184
55 1 0.674777 -0.000194205 0.0246279 0.0689676 -3.31535 0.116035 0.0483002 0.180508
137 1 0.700098 0.0502916 0.000340852 0.0213628 -3.3263 0.0141065 -0.0385771 -0.0652538
133 1 0.65048 0.0499983 -0.000186447 0.0172384 -3.31725 -0.0137875 0.0613797 0.0231583
64 1 0.750407 0.0252536 0.0249726 0.0210559 -3.33182 -0.102175 -0.00217156 0.0193103
139 1 0.724979 0.0503655 0.02509 0.0185654 -3.32814 0.0420463 -0.0666265 -0.0301181
1741 1 0.750246 0.0500203 0.0497787 0.0176124 -3.32079 -0.0109328 -0.0192842 0.0514975
58 1 0.724954 0.0247957 0.000122673 0.0282486 -3.33229 -0.00679129 0.072466 -0.00447893
141 1 0.75002 0.0500752 0.000170509 0.0155905 -3.32424 0.021053 0.019789 -0.00447909
62 1 0.775078 0.0253811 2.60333e-05 0.0143067 -3.31696 0.0382763 -0.0299866 -0.00201715
68 1 0.79986 0.0251262 0.0250126 0.00859364 -3.33094 0.0753056 -0.0476268 -0.0178992
72 1 0.850449 0.0250584 0.0247903 0.0375498 -3.33485 -0.123566 0.0135043 0.116768
147 1 0.825075 0.0502416 0.0250701 0.0103077 -3.32922 0.0945026 -0.0694944 -0.0487951
71 1 0.87519 4.80277e-05 0.02511 0.0158047 -3.32779 -0.0339629 -0.0578776 -0.0164674
149 1 0.850038 0.0500708 -0.000112764 0.0190384 -3.32407 0.0158585 0.0569721 0.0879825
151 1 0.875142 0.0505249 0.0253448 0.0467388 -3.33305 0.013103 -0.123174 -0.0671632
69 1 0.849973 2.53975e-05 -6.84718e-05 0.012078 -3.31751 -0.0324779 0.0351516 0.0867928
1666 1 0.825053 0.0248943 0.0500732 0.00972349 -3.32968 0.0494844 -0.00840186 -0.115626
76 1 0.899925 0.0250594 0.0250805 0.0111161 -3.32877 -0.027476 0.0312574 -0.00302354
75 1 0.924897 9.34867e-06 0.0251202 0.00776213 -3.3365 0.0144949 -0.044816 -0.0170834
1674 1 0.924837 0.0247816 0.0499962 0.0257961 -3.32164 -0.00834346 0.101431 0.0294184
153 1 0.900016 0.0498463 -9.31434e-05 0.0207343 -3.32902 -0.0481782 0.0213886 0.08124
80 1 0.949882 0.0253274 0.0250433 0.0345497 -3.32567 0.0299762 -0.153293 0.0376134
1678 1 0.975128 0.0249972 0.0503023 0.0235016 -3.33673 -0.0398364 0.0528897 -0.10622
78 1 0.974849 0.0247363 0.000148037 0.0125424 -3.31709 0.0304688 0.090573 0.0224734
79 1 0.97502 -0.000215518 0.0249872 0.0177392 -3.33877 -0.0395008 0.079089 0.0923468
1677 1 0.949869 0.000230523 0.0501954 0.0184859 -3.32858 0.0284537 -0.0893663 -0.0991884
83 1 0.0252042 0.0500039 0.0247019 0.0387124 -3.32767 -0.116998 0.0179394 0.121328
88 1 0.0500667 0.0750102 0.0248333 0.0120749 -3.32173 -0.0802584 -0.0239703 -0.0239137
82 1 0.0249585 0.0746767 -0.00021314 0.00839881 -3.32285 0.0247308 0.0356623 0.0226279
87 1 0.0750218 0.0500412 0.02487 0.0158298 -3.33234 -0.0689893 -0.0549745 0.0252458
92 1 0.0998519 0.0748789 0.0247581 0.00849378 -3.32909 0.0156856 0.0384577 0.0748073
86 1 0.07502 0.0745497 -0.000369782 0.0249566 -3.31544 -0.0406 0.0729368 0.00563143
89 1 0.0995129 0.0499419 -0.000520774 0.0434189 -3.31961 0.0732541 -0.031173 0.0912037
91 1 0.124725 0.0498319 0.0252487 0.0351095 -3.32784 -0.016601 0.0622376 -0.138443
95 1 0.174875 0.0502458 0.0250062 0.00778283 -3.31931 -0.0121591 0.0241822 0.0207508
93 1 0.150181 0.0501868 -0.000109139 0.0161437 -3.32788 -0.0862116 0.00338503 0.0441274
96 1 0.149489 0.0750225 0.0250958 0.0142543 -3.32894 0.0655616 -0.0236136 -0.0687646
94 1 0.174763 0.0753739 -0.000261454 0.0235403 -3.33566 0.0186578 -0.0420227 0.0726001
175 1 0.17476 0.100109 0.0248986 0.00787796 -3.32969 0.031389 -0.0443773 -0.0033163
1694 1 0.174535 0.0751236 0.0499476 0.0144701 -3.3279 0.0585297 0.0273492 0.0184185
100 1 0.199766 0.0754156 0.0250828 0.0155387 -3.32762 -0.00186915 -0.064068 -0.0279854
99 1 0.224731 0.0503648 0.025355 0.0217312 -3.32479 -0.0477445 -0.0587151 -0.0266589
1697 1 0.199291 0.0501956 0.0500643 0.0285784 -3.32914 0.098106 -0.0809982 0.00694169
1698 1 0.224711 0.0750661 0.0501596 0.00922606 -3.32744 -0.00619599 0.0443019 -0.0363808
103 1 0.274784 0.0501679 0.0251738 0.0112498 -3.32854 0.080958 -0.0562837 0.0589668
104 1 0.250041 0.0748861 0.0252527 0.0182643 -3.32678 -0.00197789 0.0870087 -0.0389394
1702 1 0.275191 0.0750081 0.0501818 0.0258128 -3.32953 -0.0910611 0.0125717 -0.0118597
1705 1 0.300332 0.0500547 0.0503891 0.0504186 -3.32957 -0.0778389 -0.0405272 -0.0876172
108 1 0.299785 0.0751409 0.0251719 0.0152777 -3.32278 -0.0122848 -0.00253658 -0.0542782
112 1 0.349739 0.0753125 0.02474 0.0282334 -3.32973 0.10479 -0.123561 0.0611118
109 1 0.349721 0.0499087 0.000264507 0.0264074 -3.31757 -0.0205902 0.0603911 -0.00291659
1706 1 0.324983 0.0752163 0.0499885 0.0174655 -3.32111 -0.0618301 0.00489401 0.0288342
105 1 0.299787 0.049943 0.000199063 0.0176593 -3.32293 -0.0701279 0.0250182 -0.104931
113 1 0.399733 0.0499035 0.000289858 0.0310186 -3.32668 0.0667088 0.059045 -0.123713
191 1 0.375087 0.100265 0.0249022 0.0217845 -3.32817 -0.155653 -0.0259482 0.0354858
116 1 0.399865 0.075305 0.0250836 0.0212622 -3.31568 -0.0592954 -0.128355 -0.0230336
193 1 0.39983 0.100075 -3.23717e-05 0.00756919 -3.31664 -0.0315547 -0.00878423 -0.0893378
120 1 0.449956 0.0751122 0.0249661 0.0121776 -3.32917 -0.0662698 -0.00512076 -0.00673186
195 1 0.424623 0.0998481 0.0248873 0.0141535 -3.32522 0.117584 0.0636404 0.0761996
1714 1 0.424608 0.0751327 0.0502338 0.025183 -3.32077 0.109143 -0.0196144 -0.0751929
114 1 0.424444 0.0749843 0.000178536 0.0340079 -3.32784 0.091833 -0.0158684 -0.0837167
119 1 0.47491 0.0503579 0.0249971 0.0215795 -3.32683 0.0386618 -0.0763028 0.00635836
124 1 0.500056 0.0753831 0.0247976 0.0228885 -3.32831 -0.0276007 -0.0661367 0.040555
203 1 0.525101 0.100171 0.0247405 0.0141208 -3.31755 0.0226685 0.049767 0.0640722
201 1 0.500301 0.100234 -8.86684e-05 0.038291 -3.32243 -0.134172 -0.0244824 0.0333978
1801 1 0.50006 0.0999942 0.0497672 0.00986016 -3.33181 -0.0360536 -0.0587344 0.0225282
118 1 0.475009 0.0752826 -0.000228439 0.0278363 -3.33028 0.0042961 -0.079139 0.0633216
122 1 0.525213 0.0750911 3.02886e-05 0.0143062 -3.33132 0.0174055 -0.0379779 -0.0489044
128 1 0.549909 0.0754574 0.0252569 0.0412803 -3.3267 0.0806964 -0.0905632 -0.106455
207 1 0.575143 0.100007 0.0247076 0.0166586 -3.33048 -0.0520494 -0.00563788 0.055307
126 1 0.575308 0.0750418 -0.000271018 0.0197585 -3.32943 -0.12795 0.0328294 0.0658689
205 1 0.550081 0.100288 -0.000150852 0.0123212 -3.3296 -0.0598406 -0.0759288 -0.0120134
132 1 0.600437 0.0751525 0.0249548 0.0213089 -3.32797 -0.0687771 0.000601362 0.02022
211 1 0.624919 0.100461 0.0249151 0.0211453 -3.32921 0.0609789 -0.0490387 -0.0205417
1730 1 0.625077 0.0754942 0.0498955 0.0208787 -3.3271 -0.00931733 -0.0847505 0.00204033
130 1 0.625255 0.0751104 -0.000258213 0.0120794 -3.32105 -0.00322269 -0.0174328 0.0238738
209 1 0.600131 0.0997135 -0.00027832 0.027181 -3.31733 0.00035526 0.102888 0.0592601
136 1 0.650127 0.075327 0.0247804 0.0157842 -3.33124 0.0309997 0.0276785 0.11583
140 1 0.700196 0.0755471 0.0252511 0.0320591 -3.3305 -0.0456421 -0.0316209 -0.0720735
134 1 0.675127 0.0752841 0.00021521 0.0115583 -3.3221 0.0383181 -0.0360314 -0.0452211
213 1 0.650178 0.0999962 -7.55087e-05 0.0145705 -3.32399 -0.0854676 0.0654187 0.0184124
144 1 0.750364 0.0752709 0.0252417 0.0278653 -3.32601 -0.0571692 -0.086879 -0.0379315
219 1 0.725374 0.100069 0.0248584 0.0246426 -3.32592 -0.0713149 0.0407603 0.133342
143 1 0.775344 0.0501971 0.0248692 0.013653 -3.31947 -0.0295097 0.0125127 0.0174548
148 1 0.800297 0.075081 0.0251061 0.00367162 -3.32248 -0.0105364 0.0276278 -0.0188293
142 1 0.775293 0.0750413 0.000128766 0.00760324 -3.32601 -0.0441436 -0.0101605 -0.0412757
152 1 0.850116 0.0752528 0.0250911 0.00578416 -3.3187 0.00678357 -0.0395179 0.0316821
231 1 0.875042 0.100331 0.0252018 0.0125078 -3.32549 0.0211947 0.0184682 -0.0128171
150 1 0.875129 0.075462 0.000270755 0.0277934 -3.33263 0.0389334 -0.107178 -0.105196
146 1 0.825527 0.0753277 -0.000120992 0.0291798 -3.32702 -0.128788 -0.0452935 -0.0100343
229 1 0.850084 0.100038 0.000149694 0.0165441 -3.32035 -0.00814529 0.122185 -0.0394321
155 1 0.924843 0.0500048 0.0249401 0.0134122 -3.32401 -0.0522421 0.0344783 0.0272588
156 1 0.899913 0.0752706 0.0250264 0.0214798 -3.32264 0.0753757 -0.00860902 0.0667092
154 1 0.924826 0.074832 0.000174487 0.0208793 -3.32308 0.00951009 0.0771432 0.0113316
1754 1 0.92519 0.0751887 0.0503127 0.0262275 -3.31885 0.00569456 -0.00342584 -0.174802
233 1 0.900088 0.10036 4.31357e-05 0.0173218 -3.3283 -0.0115129 -0.0653567 0.0283178
159 1 0.974851 0.0499335 0.0249525 0.00817967 -3.32573 0.088218 0.0162274 0.0401424
81 1 0.999717 0.049844 0.000217287 0.0210071 -3.33243 -0.00862756 0.00111382 -0.109819
84 1 0.999903 0.0750565 0.0247242 0.0157602 -3.33961 -0.00808743 -0.0251023 0.0578702
160 1 0.950059 0.0749844 0.0248086 0.0139423 -3.32983 -0.0410788 0.0384499 0.0924117
1837 1 0.950353 0.100017 0.0499026 0.0289368 -3.3129 -0.10811 -0.0197238 -0.0228014
1681 1 1.00002 0.0502856 0.0502346 0.0348516 -3.33338 -0.0288825 -0.149066 -0.106375
1757 1 0.949884 0.0500373 0.049597 0.0508391 -3.32481 0.0125718 -0.0208999 0.123886
163 1 0.0253518 0.100058 0.0247493 0.0468533 -3.32609 -0.089665 -0.0835509 0.0105545
168 1 0.049946 0.125054 0.0249752 0.0178018 -3.32932 0.0995035 -0.0203652 0.00748002
245 1 0.050125 0.149588 0.000102268 0.034153 -3.33534 -0.103821 0.0418705 0.0217091
1762 1 0.0248475 0.124692 0.0499774 0.0166408 -3.32106 -0.0487202 0.116474 0.034366
162 1 0.0245844 0.124582 0.000226768 0.0559971 -3.32682 0.099599 0.0455433 -0.097765
167 1 0.0748074 0.100003 0.0247134 0.0125395 -3.32653 4.36831e-05 -0.0160963 0.041325
172 1 0.0995126 0.124838 0.0251417 0.0422866 -3.32243 0.0740331 0.0128544 -0.0279109
1766 1 0.0749898 0.124917 0.0504845 0.0457253 -3.32628 -0.0443951 0.0173207 -0.104507
1769 1 0.0998026 0.100047 0.0499894 0.0136725 -3.32815 0.0454111 -0.0212316 -0.0510088
166 1 0.0753661 0.125087 -0.000130533 0.0525062 -3.32021 -0.1316 -0.0573208 0.0418455
173 1 0.149631 0.100165 -0.000159346 0.01425 -3.32715 0.00214738 -0.0460175 -0.00109377
171 1 0.124929 0.0998337 0.0249777 0.0187142 -3.32881 -0.0926216 0.0705058 -0.0271009
176 1 0.15026 0.124859 0.0251228 0.0405748 -3.31981 -0.0474753 0.0591547 -0.0659785
174 1 0.174996 0.124866 -0.00024301 0.0141334 -3.33777 -0.0133245 0.0583742 0.0459307
253 1 0.149595 0.150121 -0.000235523 0.0400522 -3.32865 0.0929925 -0.0912694 0.123096
180 1 0.199842 0.125102 0.0251285 0.0187026 -3.3309 -0.00678333 -0.0599661 -0.0826351
179 1 0.225047 0.100026 0.0251043 0.0065945 -3.32585 -0.00147261 0.0087283 -0.0284281
1778 1 0.224705 0.125108 0.0499801 0.012601 -3.3248 0.0928199 0.0164845 0.0164688
178 1 0.225297 0.124839 -0.000124444 0.0202686 -3.32076 -0.121833 0.0116258 0.0526991
183 1 0.274844 0.100032 0.0253772 0.0169347 -3.32181 0.0568071 -0.0378018 -0.0941791
184 1 0.250007 0.124963 0.0249761 0.0127647 -3.31843 -0.0298178 0.0501993 0.0583233
182 1 0.274812 0.125019 0.000174293 0.00846158 -3.32543 0.0588457 0.0138085 -0.0766836
181 1 0.25012 0.100253 -1.57843e-05 0.014672 -3.32442 -0.00237176 -0.128525 0.00621073
263 1 0.274689 0.150002 0.025143 0.0117764 -3.33044 0.0139694 0.0290519 -0.0302488
1781 1 0.25 0.100356 0.0499332 0.0307433 -3.3373 -0.0798927 -0.0963608 0.121364
1782 1 0.274871 0.125217 0.0502886 0.012354 -3.32286 0.0279259 0.0128919 -0.062366
187 1 0.325042 0.0996677 0.0250744 0.0418925 -3.32644 -0.0910181 0.177496 -0.00680273
1785 1 0.299943 0.100155 0.0506223 0.0406869 -3.32953 -0.0121684 -0.0208079 -0.124409
189 1 0.349997 0.100178 -0.000263142 0.0199221 -3.32553 -0.0438818 0.000895486 0.0645967
188 1 0.299687 0.124952 0.0250614 0.0108585 -3.33222 0.0783938 -0.00506651 0.00235277
186 1 0.324794 0.124994 -0.000162025 0.0164793 -3.32387 0.0728612 0.0571153 0.110412
192 1 0.349591 0.125205 0.0250389 0.0202156 -3.33644 0.0976197 -0.0531929 -0.0147977
267 1 0.325042 0.149932 0.025171 0.0260672 -3.32395 -0.0239148 0.0347115 -0.0578589
1786 1 0.324604 0.124976 0.0499714 0.0264414 -3.32839 0.0587039 0.0532519 0.0379037
265 1 0.299758 0.150007 0.000104663 0.0125146 -3.33565 0.0847944 0.0598674 0.0246318
1789 1 0.349844 0.1001 0.0501664 0.011344 -3.32878 0.00583955 -0.00869531 -0.0359863
1865 1 0.299824 0.150322 0.0498582 0.0259492 -3.323 0.0691462 -0.0836197 0.0686518
269 1 0.349732 0.150482 -6.16686e-05 0.0391929 -3.32749 0.0214217 -0.0838724 0.0693968
196 1 0.399737 0.124859 0.0247271 0.0241079 -3.322 -0.0108747 0.0369347 0.0813362
1793 1 0.399792 0.0996987 0.0500883 0.0193047 -3.32414 0.0245284 0.137158 0.0228253
1790 1 0.374896 0.124891 0.0502062 0.0131058 -3.32934 0.0180242 0.00804436 -0.107321
273 1 0.400428 0.149633 0.000157229 0.0812654 -3.31963 -0.0363549 0.051811 -0.0395233
200 1 0.450055 0.124937 0.0252267 0.0284465 -3.32128 -0.040912 -0.0237719 -0.0968746
275 1 0.424826 0.149772 0.0253519 0.0403579 -3.31667 0.0783992 0.0401256 -0.115529
277 1 0.449553 0.149693 0.000103585 0.0359986 -3.33651 -0.00401116 0.099498 0.0241578
1794 1 0.424973 0.124817 0.0496302 0.0419266 -3.34048 -0.0471578 -0.0510885 0.137416
194 1 0.424935 0.124693 -1.01103e-05 0.0178312 -3.31971 0.0530706 0.0519974 -0.0338868
199 1 0.474533 0.10001 0.0248495 0.0266712 -3.32529 0.101874 -0.0285144 -0.0186505
204 1 0.499614 0.124893 0.0248715 0.0164034 -3.32392 0.0454972 0.0165427 0.0155326
202 1 0.524515 0.125395 -8.53688e-06 0.0486505 -3.32305 0.153609 -0.0448698 0.011192
283 1 0.524852 0.150177 0.0250935 0.0114211 -3.33801 -0.0185801 -0.0531889 -0.0248976
1798 1 0.475051 0.124593 0.0498963 0.030997 -3.32201 -0.0112099 0.0972073 0.0576285
208 1 0.55009 0.125195 0.0249571 0.00768062 -3.33588 -0.0175557 -0.0183544 -0.0090771
1885 1 0.550059 0.150091 0.0501976 0.0181617 -3.32754 0.0167756 -0.0354455 -0.0229769
287 1 0.57516 0.149943 0.0251185 0.0123099 -3.31652 -0.0416181 -0.0225846 -0.0254285
206 1 0.574814 0.124922 -0.00032441 0.024235 -3.3175 0.130251 0.0345741 0.063957
212 1 0.599691 0.124962 0.0246765 0.0207946 -3.31953 0.035057 0.0424101 0.0634997
291 1 0.62487 0.149977 0.0247801 0.00943436 -3.32788 -0.0160865 0.0148315 0.0140787
210 1 0.624769 0.124977 -9.29114e-05 0.0164553 -3.33258 0.0720318 0.0351044 0.00254764
215 1 0.674943 0.100615 0.0248599 0.0383952 -3.3265 0.0250106 -0.136876 0.097166
216 1 0.65005 0.125365 0.0248483 0.0133785 -3.32303 -0.0364723 -0.0319133 0.0163463
220 1 0.700033 0.125224 0.0250599 0.010578 -3.32222 0.0685812 -0.00591043 0.00744566
214 1 0.675104 0.125006 9.81272e-05 0.0145619 -3.31544 -0.0381307 0.00885466 -0.0382954
224 1 0.750039 0.125128 0.0249668 0.0144143 -3.32773 0.0770753 -0.0159235 0.0697507
299 1 0.725123 0.15044 0.0248801 0.0318183 -3.33101 0.00865049 -0.046905 0.01531
223 1 0.775291 0.099883 0.0252307 0.0149999 -3.32567 -0.0182712 0.0942585 -0.0279282
228 1 0.800112 0.1254 0.0251049 0.021766 -3.32059 0.00980014 -0.103509 -0.0234733
225 1 0.800201 0.0999563 0.000180953 0.0165155 -3.33043 0.0045299 0.0114752 -0.0663529
1822 1 0.775187 0.125144 0.0499802 0.006317 -3.33213 0.0197954 -0.00433176 0.0239527
227 1 0.825219 0.100256 0.0251335 0.00872594 -3.3219 -0.0655153 -0.0159835 -0.00456816
232 1 0.85 0.125079 0.0252854 0.0107313 -3.32969 0.00395644 0.0288832 -0.0233446
230 1 0.874771 0.12527 -3.30766e-05 0.0164077 -3.32223 -0.000358156 -0.082876 0.0748043
235 1 0.925054 0.100278 0.0252346 0.0244444 -3.32942 -0.0227646 -0.119003 -0.0167915
236 1 0.900247 0.1253 0.0250077 0.0341408 -3.32934 -0.0944701 -0.0574086 0.00195903
1913 1 0.899893 0.149718 0.0498741 0.0418415 -3.33342 0.107863 0.109206 0.0959821
1834 1 0.925059 0.124845 0.0500722 0.0180504 -3.32718 -0.0417399 0.0709144 0.0417211
313 1 0.899461 0.150008 -7.26672e-05 0.0447411 -3.31435 0.149688 -0.0209272 0.103875
234 1 0.925314 0.124829 0.000166047 0.0525459 -3.31949 -0.0650114 0.0869265 -0.0764448
239 1 0.974956 0.100009 0.0248253 0.00505083 -3.32757 -0.0176911 -0.0030731 -0.0268748
161 1 1 0.0997194 -0.000171459 0.0174113 -3.33349 -0.0807985 0.0408497 -0.0245593
164 1 0.999873 0.124958 0.0250415 0.0088954 -3.3148 -0.00867739 0.00210712 -0.0457249
240 1 0.949763 0.125167 0.0252202 0.0306451 -3.31824 0.115714 0.00599585 -0.0761088
238 1 0.974954 0.125179 -0.000309834 0.0200571 -3.34234 -0.028308 -0.0903784 0.0892777
243 1 0.0249631 0.149753 0.0251428 0.0130829 -3.31833 0.0396791 0.00932971 0.033977
248 1 0.0496747 0.174657 0.0247491 0.0536555 -3.32052 -0.0323792 0.055285 0.0594861
244 1 0.000633226 0.174797 0.0247337 0.0783913 -3.33707 -0.165855 0.0896518 0.13096
1842 1 0.0253379 0.175317 0.0502691 0.0681469 -3.33352 0.00772918 -0.109441 -0.0755069
1925 1 0.0496036 0.200506 0.0496725 0.0685483 -3.31836 0.0605496 -0.0999972 0.0987065
1841 1 -0.000108761 0.150042 0.0500812 0.00983315 -3.33449 0.000908077 0.0172059 -0.0489699
247 1 0.0749771 0.149995 0.0254433 0.0362628 -3.31802 -0.059874 0.00075953 -0.117593
1849 1 0.0997835 0.150288 0.0497877 0.0402227 -3.32312 -0.0126113 -0.0384947 0.107848
252 1 0.100354 0.174844 0.0250493 0.0579269 -3.32625 -0.114608 0.0472974 0.0385863
327 1 0.0749022 0.19971 0.0250792 0.0434245 -3.33592 -0.0357689 0.0589864 -0.010631
1846 1 0.0741833 0.175056 0.0498933 0.0839668 -3.33902 0.107551 0.0313247 0.0408303
251 1 0.12505 0.14991 0.025092 0.0212313 -3.32465 -0.00493433 -0.0235931 -0.0498935
255 1 0.175032 0.149876 0.0248637 0.019008 -3.33111 -0.0727815 0.0143267 -0.0268311
256 1 0.149917 0.17501 0.0251738 0.0126815 -3.33411 -0.0720103 -0.0049876 -0.0905546
254 1 0.175281 0.174672 0.000123404 0.0448551 -3.3275 -0.134334 0.0575502 -0.0276267
250 1 0.124834 0.175005 -0.000102997 0.0185663 -3.31186 -0.0413083 0.0412932 0.0886192
259 1 0.224856 0.149979 0.025032 0.0101396 -3.31592 0.0231856 -0.0136143 0.0109059
260 1 0.199698 0.175068 0.0247932 0.0211325 -3.31803 0.0724627 0.00671719 0.0549349
1858 1 0.224554 0.175279 0.0499466 0.0169548 -3.31426 0.0672804 -0.0163449 0.00966937
1937 1 0.19951 0.199874 0.0497783 0.040991 -3.32222 0.0990595 0.104003 0.0779041
264 1 0.249762 0.174862 0.0252472 0.0226569 -3.32557 0.0620794 0.0846988 -0.0130213
343 1 0.275159 0.199866 0.024984 0.0286413 -3.33139 -0.0832321 -0.00274422 0.0907923
1862 1 0.275031 0.174964 0.0501039 0.0120477 -3.32873 -0.0360144 0.0385573 -0.0627667
268 1 0.300281 0.174985 0.0250835 0.0282938 -3.3203 -0.145229 -0.00316641 -0.0526973
272 1 0.350057 0.175351 0.0248843 0.0243066 -3.32289 -0.0209158 -0.0913225 0.0211774
347 1 0.324907 0.200184 0.0250917 0.00905364 -3.32678 0.0166202 0.0329623 -0.0235475
1945 1 0.300031 0.200087 0.0500985 0.013256 -3.3212 0.00748308 0.0154767 -0.0654463
1866 1 0.324846 0.175098 0.0497172 0.0276667 -3.32634 0.0534178 0.00544548 0.141226
349 1 0.350235 0.199962 -0.000105617 0.0264536 -3.33186 0.0125654 0.0288307 0.0362619
271 1 0.375023 0.150111 0.0251373 0.0205114 -3.33441 -0.091656 -0.0547325 -0.0641384
276 1 0.400121 0.174993 0.0245879 0.0525839 -3.32095 0.013159 0.0215757 0.155095
351 1 0.374951 0.199982 0.0252241 0.0227635 -3.32348 0.036025 0.0405675 -0.0851801
1874 1 0.424778 0.174764 0.0500186 0.0114089 -3.324 0.0550295 0.0463479 -0.0277777
280 1 0.449855 0.174994 0.025285 0.0146137 -3.33556 -0.0409685 -0.0530837 -0.113393
1877 1 0.45017 0.150008 0.0500337 0.0215206 -3.31593 -0.0427327 -0.0795339 -0.0068204
279 1 0.474905 0.149867 0.0251757 0.00984662 -3.32044 -0.0228012 0.0443967 -0.0264407
284 1 0.499703 0.175137 0.0249481 0.0274721 -3.33129 0.075959 -0.0456289 0.0717206
363 1 0.525423 0.200047 0.025105 0.0161489 -3.33311 -0.0304188 -0.035762 0.00505027
1878 1 0.474883 0.174815 0.0501796 0.0128591 -3.31588 0.0385609 0.0738259 -0.0396843
1881 1 0.499772 0.150115 0.0501713 0.0173211 -3.33402 0.0313925 -0.0468629 -0.0142463
278 1 0.475015 0.174645 3.108e-05 0.0283829 -3.3225 -0.116994 0.0814159 0.0650138
282 1 0.525041 0.175105 0.000141047 0.0177367 -3.34035 0.0411276 -0.078262 0.0148836
285 1 0.550238 0.150103 -0.000179872 0.0250896 -3.33174 -0.0511464 0.000958408 0.0885703
288 1 0.550289 0.174501 0.0253439 0.0663219 -3.32395 -0.0589785 0.134232 -0.0711812
1886 1 0.575422 0.175251 0.0500632 0.0273907 -3.31457 -0.109679 -0.0823132 0.0145232
367 1 0.575319 0.199693 0.0252801 0.0246736 -3.31741 -0.0177691 0.102817 -0.0768017
1965 1 0.550271 0.200159 0.0499654 0.019641 -3.3184 -0.0560875 -0.0542682 0.0371312
292 1 0.600045 0.174883 0.0248039 0.020603 -3.3234 0.0997056 0.00366745 0.0629191
371 1 0.624977 0.199964 0.0251946 0.0120113 -3.32769 0.0484008 -0.0183744 -0.0360988
289 1 0.599676 0.149881 -9.74081e-05 0.0216782 -3.33062 0.0561152 0.013938 -0.0247415
290 1 0.625125 0.174726 -0.000234691 0.0291298 -3.33264 0.00400175 0.0758593 0.0654113
295 1 0.675296 0.150209 0.0247061 0.0182964 -3.31856 -0.00473965 -0.0154417 0.0506361
296 1 0.650028 0.175007 0.0248365 0.00888423 -3.32825 -0.0699515 -0.0122247 0.078805
293 1 0.650333 0.14992 -0.000129562 0.0274973 -3.32772 -0.0881999 -0.00291941 -0.0152902
300 1 0.700032 0.175115 0.0247338 0.0196896 -3.32706 0.0727595 0.00876983 -0.0121896
375 1 0.675071 0.19994 0.0252156 0.02232 -3.31565 -0.00831727 0.104929 -0.0177612
294 1 0.674726 0.175061 -0.000123986 0.0260726 -3.33172 0.133836 -0.0299158 -0.0265869
1894 1 0.675148 0.175245 0.0497261 0.0144914 -3.33198 -0.0889768 -0.0662679 0.0934126
304 1 0.75013 0.175473 0.0255245 0.0535105 -3.31937 0.0165894 -0.111559 -0.144682
298 1 0.725677 0.175205 3.48676e-05 0.0400191 -3.34685 -0.0391574 -0.0204861 -0.00351028
305 1 0.799742 0.150248 0.000157046 0.0314369 -3.32657 0.051189 -0.0186507 -0.0614868
303 1 0.775184 0.150219 0.0250742 0.0148987 -3.32101 -0.0622743 0.0172991 0.0634281
308 1 0.800273 0.175193 0.0251035 0.0113822 -3.32946 -0.0182716 0.0240203 -0.00423362
302 1 0.774983 0.175439 2.63685e-05 0.0356045 -3.33618 -0.00403339 -0.061783 0.0203487
307 1 0.825237 0.150302 0.0250072 0.0161489 -3.32192 0.0129269 -0.0673541 0.00875859
311 1 0.874666 0.149991 0.0250586 0.0242062 -3.32108 0.0486781 -0.00430354 0.0367331
309 1 0.850055 0.150242 -1.96449e-06 0.00828042 -3.31777 -0.0277338 -0.0110763 -0.005098
306 1 0.824773 0.175141 -6.50634e-05 0.0149911 -3.32315 0.0445034 0.0182997 0.0207853
312 1 0.84995 0.17502 0.0250275 0.00973829 -3.32522 -0.00175583 0.0676049 -0.00488906
310 1 0.875097 0.175063 0.000258658 0.0181662 -3.32138 -0.0743992 0.0585461 -0.0642671
1909 1 0.850262 0.149864 0.0504708 0.0408747 -3.32464 -0.0577114 0.00962183 -0.100939
1906 1 0.825476 0.174947 0.0500628 0.0310839 -3.32374 -0.129778 0.0265532 -0.033714
1910 1 0.875099 0.17495 0.0501854 0.0108244 -3.32814 -0.0451783 0.0131978 0.0287698
315 1 0.925004 0.15016 0.0246778 0.0406606 -3.32531 -0.0158054 0.0114032 0.117854
316 1 0.89975 0.175033 0.0253152 0.0231696 -3.32083 0.0392097 -0.0346989 -0.0615459
1914 1 0.92473 0.174945 0.050214 0.0261667 -3.33156 0.0204856 -0.00722718 -0.0123289
1917 1 0.950045 0.150316 0.050116 0.0185367 -3.33995 -0.0159991 -0.0983068 -0.0164182
319 1 0.974816 0.150262 0.0249474 0.0262942 -3.33803 0.0237615 -0.0334383 0.0173286
320 1 0.94974 0.175188 0.025065 0.0145541 -3.32229 0.0589443 -0.0656848 -0.0443756
1997 1 0.949793 0.200055 0.0502504 0.0175504 -3.30977 0.0390912 -0.0159671 -0.0560996
323 1 0.0253449 0.20017 0.0246125 0.0503791 -3.31515 -0.110741 -0.0342717 0.125802
328 1 0.0500447 0.225559 0.0248228 0.0412412 -3.32898 -0.0641853 -0.0730474 0.0452131
324 1 0.000134753 0.224745 0.0253068 0.0667219 -3.32656 -0.0589867 0.0855668 -0.101622
332 1 0.0994873 0.225282 0.0248697 0.0392426 -3.32801 0.0991749 -0.0922754 0.0500979
326 1 0.0746509 0.224943 -7.95815e-05 0.0164072 -3.32078 0.0352635 0.0113236 -0.00151722
331 1 0.124618 0.200162 0.025106 0.0163574 -3.33204 0.0313426 0.0313702 0.0409486
335 1 0.174766 0.200006 0.0252444 0.016945 -3.32105 0.00631903 0.0988855 -0.089818
333 1 0.149791 0.200077 0.000624402 0.0368544 -3.33813 0.079342 -0.0428703 -0.127248
336 1 0.15 0.225615 0.0253344 0.0489551 -3.32115 -0.0368051 -0.144853 -0.0346104
330 1 0.125123 0.224988 0.000258837 0.019944 -3.33074 -0.115628 0.00645435 -0.0365805
415 1 0.175088 0.250181 0.025053 0.00972081 -3.33601 -0.00855033 0.0596212 -0.0120606
1934 1 0.174917 0.225148 0.0499116 0.0142589 -3.32854 0.0931536 0.0283866 0.0442609
339 1 0.225018 0.200012 0.0251014 0.0108123 -3.33152 -0.0248738 0.0217243 -0.0590676
340 1 0.200392 0.225226 0.0251027 0.0365695 -3.32495 -0.133523 -0.0921112 0.0146247
419 1 0.224795 0.250135 0.0252303 0.0191952 -3.31434 0.0942892 0.0216883 -0.0211996
1938 1 0.224861 0.224887 0.0502532 0.0152709 -3.33174 0.0356279 0.0369032 -0.0102003
1941 1 0.249568 0.199965 0.0500994 0.019484 -3.32206 0.091379 -0.0394992 -0.0180995
344 1 0.250034 0.225101 0.024953 0.0133851 -3.33593 -0.0512674 0.00334315 0.0515884
423 1 0.275142 0.250331 0.024704 0.0342737 -3.31347 -0.0529508 -0.0719161 0.169527
1942 1 0.274613 0.224555 0.0499548 0.0529798 -3.33539 0.0698189 0.159906 0.0347256
342 1 0.275232 0.225572 0.000341936 0.0638896 -3.31379 -0.0724862 -0.0765866 -0.158017
348 1 0.299768 0.22511 0.0248813 0.0228639 -3.32504 0.0866539 0.0107666 0.137613
352 1 0.349961 0.225209 0.0250153 0.00816458 -3.33157 0.0194372 -0.0222913 -0.00587916
427 1 0.324947 0.250204 0.0249351 0.00633843 -3.33003 0.0198195 -0.0268481 0.00698909
2029 1 0.349779 0.250235 0.050127 0.0268905 -3.32349 0.0984559 -0.089363 -0.08918
429 1 0.350227 0.250026 -2.26694e-05 0.0162812 -3.32768 -0.0638915 -0.0410527 0.0280747
431 1 0.375365 0.249703 0.0248923 0.0363761 -3.33381 -0.0735854 0.0473045 0.0585635
1950 1 0.375121 0.225021 0.0502506 0.0118428 -3.34095 -0.0367276 0.0314556 -0.0498342