ITEM: TIMESTEP
12500
ITEM: NUMBER OF ATOMS
32000
ITEM: BOX BOUNDS pp pp pp
5.0592466789117161e+00 7.5940753321083122e+01
-2.1770312404609626e+00 8.3177031240455136e+01
-2.1749208563477751e+00 8.3174920856343704e+01
ITEM: ATOMS id type xs ys zs c_csym c_peratom fx fy fz
8 1 0.0501557 0.025395 0.0249083 0.0369352 -3.3 -0.0514189 -0.057927 0.0866533
1602 1 0.0247357 0.0247248 0.0499233 0.0311914 -3.30003 0.0665491 0.0937919 0.0310171
1685 1 0.0498262 0.0501889 0.0499805 0.0285963 -3.2927 0.0412972 -0.118176 0.000173997
4 1 0.000281732 0.0248473 0.0249498 0.0187712 -3.30193 -0.0561473 -0.0319667 0.0377915
3 1 0.0253165 -0.00037638 0.0253014 0.0512159 -3.28472 -0.054085 0.124452 -0.173548
12 1 0.100149 0.0252706 0.0248326 0.0273498 -3.29334 -0.00579965 -0.146552 0.142301
6 1 0.0752518 0.0252233 0.000232192 0.0213509 -3.28551 -0.00722552 -0.0446827 -0.107598
7 1 0.0749908 0.000253501 0.0254508 0.0441064 -3.29984 0.0845124 -0.0577013 -0.0802112
1606 1 0.0748245 0.0251473 0.0501764 0.0190401 -3.30492 0.0323965 -0.0373992 -0.0534797
1689 1 0.100251 0.0497886 0.0500188 0.028363 -3.2952 0.0156471 0.0984179 -0.013026
89 1 0.0994204 0.0502427 -0.000236721 0.0820995 -3.28947 0.130853 -0.04588 -0.0448422
16 1 0.149841 0.0252711 0.0248889 0.0366433 -3.30004 0.0354392 -0.0452652 0.00515464
15 1 0.174699 0.00010519 0.0250368 0.039843 -3.30172 0.0218553 -0.0389387 -0.114963
11 1 0.125134 -0.000160135 0.0247417 0.0179248 -3.30019 -0.0930984 0.0317561 0.0112738
91 1 0.124762 0.0499341 0.0245596 0.0452002 -3.28758 0.103493 0.040597 0.0744049
1614 1 0.175251 0.0248165 0.049939 0.025684 -3.29863 -0.023523 0.0505318 -0.0613994
14 1 0.174781 0.0245076 -0.000218989 0.0457918 -3.29219 0.0084342 0.0938641 0.0990952
93 1 0.150367 0.0501426 -1.73513e-05 0.0227668 -3.30717 0.0229496 -0.0379936 -0.00636727
20 1 0.200051 0.0245718 0.0248304 0.0250283 -3.30519 0.00940735 0.057159 -0.0488282
19 1 0.225235 -0.000500657 0.0250652 0.0479864 -3.29276 -0.00373781 0.153922 -0.0877118
1618 1 0.224784 0.024615 0.0498632 0.0314378 -3.29426 0.0830485 0.10876 0.00426883
99 1 0.225114 0.0496537 0.0248605 0.0268449 -3.29257 -0.0189993 -0.00418019 -0.0319695
18 1 0.22545 0.0250931 -0.00013972 0.0322974 -3.30407 -0.0808113 -0.048164 -0.00940174
97 1 0.199886 0.0496156 7.45194e-05 0.0397546 -3.2954 0.0185767 -0.00946339 -0.066605
24 1 0.250381 0.0250273 0.0251701 0.0287206 -3.30263 -0.0347666 -0.0742195 -0.00851356
1622 1 0.275352 0.0249977 0.0500764 0.0162818 -3.30294 -0.0444635 -0.0887834 0.0262142
103 1 0.274962 0.0502546 0.0250888 0.021232 -3.30211 0.0490852 -0.0437613 -0.0777552
21 1 0.250086 0.000367939 0.000166401 0.0433024 -3.29879 -0.000885127 -0.106552 -0.0605114
28 1 0.300333 0.0246827 0.0252633 0.0262869 -3.30254 -0.060472 0.0483311 -0.0610466
26 1 0.325303 0.0251527 0.00042681 0.0512474 -3.29177 -0.0250569 -0.0532453 -0.0980808
32 1 0.350042 0.0247086 0.0251397 0.0136629 -3.29922 0.0414421 0.0223405 0.079194
25 1 0.300334 -0.000203926 -0.000430154 0.0629269 -3.29958 -0.0159409 0.0902886 0.157339
27 1 0.325381 -0.000423595 0.0250141 0.0238768 -3.29593 -0.0447396 0.0895595 0.0193291
107 1 0.325102 0.0498326 0.0252618 0.0140308 -3.29552 -0.0435588 0.023442 0.00948983
1705 1 0.29972 0.0501293 0.0500332 0.0230587 -3.29609 0.0784584 0.0119404 -0.0137584
1629 1 0.350468 -0.000221446 0.0504117 0.0260146 -3.28659 -0.113189 0.0182471 -0.104737
36 1 0.399691 0.0248855 0.0250209 0.0248452 -3.30024 0.0386636 0.0916614 0.0492495
111 1 0.374788 0.0498642 0.0254695 0.0222336 -3.29866 0.0188197 -0.026853 -0.0498376
115 1 0.424807 0.05043 0.0250691 0.0339784 -3.29084 -0.0136531 -0.160657 -0.0565991
40 1 0.449974 0.0252315 0.0249755 0.0127656 -3.29951 -0.0600149 -0.0042249 0.0383319
35 1 0.424672 0.000170233 0.0253002 0.0212556 -3.29787 0.0970066 -0.022723 -0.0871718
1634 1 0.424868 0.0251443 0.0501741 0.0105697 -3.29814 0.0263024 -0.0725451 -0.0161716
34 1 0.425153 0.0250375 0.000204994 0.0359578 -3.30433 -0.106147 0.0210652 -0.0569946
44 1 0.499405 0.0256065 0.0247382 0.0480858 -3.29627 0.0775385 -0.164544 0.0179819
39 1 0.474686 0.000325502 0.0250034 0.0133268 -3.29865 -0.0145827 -0.0591085 -0.0228167
1642 1 0.524471 0.0251852 0.049841 0.00541409 -3.30672 0.0559463 -0.0464389 -0.054827
123 1 0.524357 0.0503264 0.0248328 0.0270524 -3.27894 0.144275 0.0354702 0.0990992
43 1 0.524424 -0.000161304 0.0244145 0.0597885 -3.30256 -0.0114614 0.150134 0.175117
1721 1 0.499784 0.0502614 0.0497322 0.0205056 -3.29101 0.0107104 0.0191439 0.0999887
1641 1 0.499561 -7.9357e-05 0.0496605 0.0280968 -3.28971 0.0450374 0.115094 0.0265654
38 1 0.474572 0.0252791 -0.000173379 0.013634 -3.29835 -0.00526409 -0.0112863 0.00483122
42 1 0.524644 0.0247689 -0.000202738 0.0461725 -3.29794 -0.0138561 0.0899792 -0.00016935
48 1 0.549296 0.0253128 0.0247694 0.0525795 -3.30775 0.0232301 -0.0559551 0.111949
127 1 0.575372 0.0496954 0.0248707 0.0825926 -3.29754 -0.110137 0.111434 0.121919
47 1 0.574468 0.000250701 0.0251753 0.0404171 -3.2982 0.0145329 -0.0417169 -0.0941924
1645 1 0.549668 -0.000196738 0.0498049 0.0276713 -3.29705 -0.0401993 0.165959 0.0171195
52 1 0.599968 0.0247984 0.0251971 0.0269704 -3.2913 0.0110951 -0.045554 0.0470627
131 1 0.62455 0.0499063 0.0252272 0.01685 -3.30372 -0.0240447 -0.00215052 -0.0342986
51 1 0.624854 -0.000205593 0.0250798 0.0176374 -3.29863 0.0514248 0.0270054 -0.00963924
49 1 0.599932 -0.000274485 0.000109887 0.0288203 -3.29738 -0.0166195 0.05446 0.00295042
56 1 0.649949 0.0246891 0.024751 0.0383903 -3.30609 -0.0212878 0.0801215 -0.0254548
60 1 0.699633 0.0249366 0.0249821 0.0151518 -3.31424 0.0347341 0.0569416 -0.0375207
135 1 0.674704 0.0504437 0.0252732 0.061349 -3.30723 0.0500927 -0.114856 -0.119829
1654 1 0.674541 0.0252491 0.0497369 0.0356601 -3.30136 0.0524053 -0.0390311 0.0386332
55 1 0.674892 -0.000269375 0.024878 0.0189417 -3.29363 -0.026642 0.0281281 0.0104563
1657 1 0.699728 0.000138852 0.0496861 0.0353076 -3.30065 0.0396431 -0.0129676 0.0679417
1653 1 0.64979 -0.000289436 0.0500992 0.0220086 -3.31121 -0.00323007 -0.0116275 -0.0199775
54 1 0.674906 0.0248882 -0.00028275 0.0272922 -3.28424 0.0262599 0.0747399 0.103962
64 1 0.750104 0.0247802 0.0247127 0.00849052 -3.30595 0.00389097 -0.000983013 0.00318412
1658 1 0.724994 0.0250799 0.049702 0.019014 -3.30319 -0.0243006 -0.021237 -0.0299715
59 1 0.724607 -0.0005096 0.0246316 0.0421083 -3.3034 0.00587987 0.113844 0.0583147
58 1 0.72505 0.0247287 -4.03196e-05 0.0109512 -3.30146 -0.0680327 0.0620994 0.0127575
61 1 0.749931 -9.10242e-05 -0.000126503 0.00620192 -3.30003 0.0309897 -0.000458255 9.18189e-05
68 1 0.799545 0.0248459 0.0251841 0.0401963 -3.30866 0.126032 0.0664146 -0.105916
143 1 0.775069 0.0501324 0.0248483 0.0163569 -3.29082 -0.000531815 -0.0591669 -0.00763206
62 1 0.77536 0.0248274 -0.000344666 0.0308809 -3.31031 0.0225331 -0.0405922 0.039327
63 1 0.775182 -7.00338e-05 0.0249461 0.0187818 -3.29085 -0.0194858 -0.0571612 -0.0953771
1665 1 0.799938 9.16882e-06 0.0499305 0.0135251 -3.29133 0.00244909 -0.106737 0.0117685
72 1 0.849764 0.0249102 0.0248188 0.0161407 -3.30402 0.00334181 0.106891 0.0427099
71 1 0.874681 0.000140053 0.025155 0.0322004 -3.30473 0.109121 -0.0613679 -0.00114771
67 1 0.824997 -0.00033168 0.0251354 0.0185739 -3.29149 -0.0371352 0.0383689 0.0020374
1666 1 0.824584 0.0247731 0.0498727 0.0162329 -3.298 0.0663184 0.123912 -0.0111632
1749 1 0.849573 0.049953 0.050027 0.0229722 -3.31066 0.0552076 -0.014804 -0.0870686
70 1 0.875048 0.0249088 3.7504e-05 0.0181942 -3.29142 -0.0650213 0.00882824 0.067847
76 1 0.900343 0.0249751 0.0251803 0.0286335 -3.29969 -0.0805081 0.0111567 0.0332836
1753 1 0.900172 0.049752 0.0503582 0.0319092 -3.29235 -0.0525675 -0.0324411 -0.0940913
74 1 0.924532 0.0250979 -0.000179913 0.0445723 -3.29924 0.161468 -0.0461907 0.0934529
80 1 0.950018 0.0247236 0.0251184 0.00821271 -3.30352 -0.0929573 0.0557986 -0.0467157
1678 1 0.974958 0.0245207 0.0500668 0.0308148 -3.31184 0.0663806 0.0714633 0.037364
159 1 0.975289 0.0498358 0.0251503 0.0124009 -3.29914 -0.00374024 0.00259753 0.0307167
78 1 0.97495 0.0250182 0.000352341 0.0157424 -3.29603 0.0276343 -0.0284451 -0.0692875
79 1 0.974743 -0.000236108 0.0250106 0.0167119 -3.28416 0.0830704 0.0152452 0.0258177
81 1 1 0.0500563 0.000242679 0.0209045 -3.27999 0.0789817 -0.135243 -0.0420348
83 1 0.0249364 0.0500161 0.0250417 0.0201885 -3.29435 -0.0163111 0.012706 0.0223943
88 1 0.0499838 0.0748504 0.0252538 0.0176374 -3.29852 -0.000575773 0.024046 -0.0365218
84 1 0.000147013 0.0752792 0.025649 0.0560364 -3.29506 0.0572309 -0.078156 0.0329063
161 1 0.000336234 0.100447 4.90659e-06 0.0839848 -3.2926 -0.0341641 -0.0694921 0.11247
87 1 0.075427 0.0500489 0.0250762 0.0294484 -3.2898 -0.0882975 0.057478 0.0362423
92 1 0.100573 0.0748509 0.0246959 0.0569759 -3.29528 -0.140375 0.0741008 0.120571
86 1 0.0749316 0.07505 5.7876e-05 0.01416 -3.29902 -0.0711237 0.0530012 -0.0175143
169 1 0.0999183 0.100061 -8.23803e-05 0.0164071 -3.29107 0.0349317 -0.0549581 0.00930169
95 1 0.175276 0.0499627 0.0249042 0.0130913 -3.30184 0.000200048 0.0117598 0.052436
96 1 0.150147 0.0749072 0.0249065 0.00528523 -3.3054 -0.023273 -0.038286 -0.00160925
1694 1 0.175206 0.0749018 0.0500439 0.0117248 -3.31487 -0.061437 -0.0348269 -0.0391153
175 1 0.175089 0.0997974 0.0252874 0.0542565 -3.29374 0.0437386 -0.0207471 -0.126542
171 1 0.125166 0.0999032 0.0249796 0.0133636 -3.29217 0.00702279 0.0400306 -0.0895947
94 1 0.175515 0.075185 -4.61755e-05 0.0273269 -3.30839 -0.0481246 -0.0569806 0.0226488
100 1 0.200811 0.0750681 0.0249757 0.070258 -3.30731 -0.101304 -0.0488451 0.0320985
1698 1 0.22524 0.0748295 0.0505483 0.089189 -3.29444 0.012856 0.0577291 -0.101527
179 1 0.224942 0.100118 0.0247266 0.0248375 -3.28383 0.00342424 -0.00714103 0.024624
98 1 0.224937 0.0743823 -0.00034194 0.0467569 -3.28757 -0.0277912 0.0747715 0.00715255
177 1 0.200311 0.0999059 -0.000174581 0.0173044 -3.28805 -0.0186967 -0.0345263 0.0215887
104 1 0.24956 0.0749654 0.0247797 0.0343792 -3.30421 0.00261124 -7.65581e-05 0.024493
1701 1 0.249911 0.0499778 0.0496985 0.0437491 -3.29814 0.0104281 -0.0645273 0.122383
101 1 0.250079 0.0497761 -0.000305724 0.019307 -3.2895 0.0704395 0.0777977 0.0407011
183 1 0.274497 0.10009 0.0250278 0.0156819 -3.29671 0.0272005 -0.0580833 -0.0404451
1702 1 0.274479 0.0752636 0.0499914 0.0295063 -3.29827 -0.0327013 -0.0423677 0.0168474
102 1 0.275323 0.0750756 0.000192418 0.0413877 -3.29474 -0.0864658 -0.0796394 0.0305911
181 1 0.249715 0.0994429 -0.000297342 0.0577395 -3.29278 -0.0417539 0.0874518 0.0362163
108 1 0.300057 0.075145 0.0253806 0.0247544 -3.30232 -0.0020603 -0.0351552 -0.000717226
112 1 0.34987 0.0747544 0.0248666 0.0280233 -3.29354 -0.0323944 0.0431626 0.0961081
187 1 0.324969 0.0998703 0.0251894 0.0129518 -3.30418 0.0381511 0.0285645 -0.0131689
185 1 0.299814 0.10014 8.26615e-05 0.0144599 -3.28894 0.00443507 0.00791196 0.0358345
1706 1 0.325286 0.0749648 0.0503373 0.0360573 -3.30598 -0.0503175 0.0405506 -0.0321508
116 1 0.399662 0.0749883 0.0250575 0.00798972 -3.28064 0.0646131 -0.010926 0.0403634
120 1 0.449563 0.0750915 0.0246317 0.0186464 -3.28958 0.00289004 0.101324 0.065607
1714 1 0.424907 0.0749422 0.0497954 0.0159683 -3.29561 -0.0413522 0.0569103 0.0376708
121 1 0.500232 0.0504089 0.000297712 0.0782134 -3.30639 -0.14588 -0.014526 -0.185914
119 1 0.474615 0.0503967 0.0250288 0.0156159 -3.29183 0.0350668 0.0500069 -0.0619044
124 1 0.499962 0.0756051 0.0248764 0.036601 -3.30934 -0.0830667 -0.00729213 0.0321351
199 1 0.474227 0.100293 0.0249525 0.0382811 -3.30307 0.0123509 -0.0690638 -0.0428858
128 1 0.549995 0.0750935 0.0248791 0.0183807 -3.31714 -0.0366979 -0.060196 0.00938762
1726 1 0.574701 0.0747524 0.0500042 0.0191121 -3.29216 0.0661394 0.0380398 -0.0294464
207 1 0.574693 0.100257 0.0250229 0.0296331 -3.28248 0.0755563 -0.118865 0.00877559
125 1 0.549717 0.0500631 0.000313947 0.03556 -3.30645 -0.0949983 0.0245394 -0.0443778
126 1 0.574963 0.0748418 8.69812e-05 0.022765 -3.29828 0.00788538 0.0173249 -0.0114298
132 1 0.599771 0.075191 0.0250028 0.0238816 -3.3086 0.00210484 -0.0413546 0.0309892
211 1 0.624685 0.100184 0.0253389 0.0242693 -3.29414 0.0414202 -0.00167889 -0.110782
130 1 0.624564 0.0747481 -5.13165e-05 0.0193941 -3.30765 -0.00486861 0.0318157 0.00887812
1729 1 0.599514 0.0496946 0.0504105 0.0468715 -3.29558 0.0560427 0.0547617 -0.103787
1730 1 0.624526 0.0750941 0.0503019 0.0194296 -3.29487 -0.0318921 -0.0755031 -0.0545334
137 1 0.699802 0.0498872 -9.68021e-05 0.0168443 -3.31189 -0.0400827 0.00972174 0.0786435
136 1 0.64932 0.0749889 0.0250444 0.0222375 -3.30196 -0.017849 0.0430618 -0.0461322
140 1 0.700218 0.0750981 0.0252548 0.0436865 -3.31146 0.0522822 -0.0366202 -0.140273
1813 1 0.649643 0.100086 0.0500743 0.0122923 -3.30596 0.0304325 0.0545599 -0.00140186
1737 1 0.699798 0.0504027 0.0500853 0.0482276 -3.29337 0.0457754 -0.161761 -0.0777722
139 1 0.725282 0.0499068 0.0246351 0.0241138 -3.3117 -0.099362 -0.00217556 0.0441954
144 1 0.750221 0.0750385 0.0244741 0.0243138 -3.31393 -0.015471 0.0208764 0.0785926
138 1 0.725068 0.0747943 -0.000617289 0.0544715 -3.30867 0.0283826 0.0210068 0.159038
221 1 0.750404 0.100188 -0.000156095 0.0452366 -3.28795 -0.0986871 -0.107981 -0.061428
148 1 0.799456 0.0753565 0.024578 0.0617457 -3.29491 0.0472287 -0.0679674 -0.0243952
1745 1 0.799415 0.0502407 0.0501717 0.0572292 -3.29619 0.144929 -0.155421 -0.0881969
142 1 0.77485 0.0748531 -0.000635879 0.057642 -3.292 0.102181 0.0591107 0.0647633
225 1 0.799473 0.100449 -0.000360211 0.0505741 -3.28785 0.104398 -0.156466 -0.0262638
147 1 0.824788 0.05007 0.0246772 0.0207719 -3.31093 -0.0310798 -0.0302975 0.138328
151 1 0.875608 0.0500871 0.0249862 0.045264 -3.31884 -0.145055 -0.0557488 0.0701818
152 1 0.850069 0.0750296 0.0251219 0.0279381 -3.30519 0.036982 -0.0451759 -0.0619704
227 1 0.824838 0.100156 0.024408 0.0451476 -3.30253 0.00847035 -0.0302672 -0.0108123
1746 1 0.824594 0.0747256 0.04944 0.0682674 -3.28286 0.00818685 -0.0100184 0.0823754
1750 1 0.875425 0.0749335 0.0499482 0.0330683 -3.30595 -0.0907696 -0.0275574 -0.0304303
155 1 0.925206 0.0500687 0.0252819 0.0213342 -3.30861 -0.0230347 -0.0443646 -0.0762587
156 1 0.900429 0.0751105 0.0249762 0.0141122 -3.29397 -0.029874 0.00597491 0.0614013
1833 1 0.900373 0.099733 0.0503478 0.038798 -3.30359 0.00376377 -0.00776637 -0.140846
235 1 0.92534 0.100097 0.0248543 0.0330945 -3.28498 -0.0320665 -0.0553444 0.0635308
160 1 0.950438 0.0750681 0.0249123 0.0297639 -3.3044 -0.0286106 -0.0465637 0.0569169
1758 1 0.975129 0.0749408 0.0503898 0.018052 -3.30361 -0.0894209 0.0767599 0.00631426
165 1 0.0493738 0.0999055 0.000498001 0.05591 -3.29373 0.0549726 0.00396169 -0.159084
163 1 0.0251045 0.100115 0.0253067 0.0193209 -3.29905 -0.0743913 0.0011274 0.06459
1765 1 0.049983 0.0999419 0.0502213 0.0124755 -3.30317 0.11359 0.0534454 -0.024081
168 1 0.0500711 0.125273 0.0249533 0.0402384 -3.29586 0.0605724 -0.0849238 0.158595
245 1 0.0503716 0.149953 -0.000166216 0.0350274 -3.2943 0.0349063 0.0406829 0.0494345
243 1 0.02527 0.150145 0.0247535 0.0534047 -3.29766 -0.0232064 0.0294242 0.0659608
1845 1 0.049718 0.150217 0.0501549 0.0549844 -3.29949 0.0498366 -0.153506 -0.0468507
1762 1 0.0248934 0.124675 0.0501035 0.037929 -3.30343 0.0904237 0.0948297 0.0245387
167 1 0.0750461 0.0997347 0.0246951 0.0448635 -3.30901 -0.0181774 0.0308273 0.138252
172 1 0.100089 0.124852 0.0252338 0.018169 -3.29201 -0.0432891 0.0133042 -0.0981497
247 1 0.0754066 0.149785 0.0252355 0.0286071 -3.28961 -0.0852671 0.0165572 -0.00699008
176 1 0.15042 0.124816 0.0249874 0.0172777 -3.29747 -0.0631833 -0.0249205 -0.0433944
255 1 0.174778 0.149814 0.0247753 0.0264779 -3.29156 0.0949825 0.0549604 -0.032497
251 1 0.125501 0.149816 0.0250131 0.0339243 -3.31233 -0.0978086 0.00637727 -0.037221
170 1 0.124707 0.124802 0.000108566 0.0285435 -3.29918 -0.0113879 0.0474163 0.00513133
253 1 0.1501 0.149541 -0.000297331 0.0457057 -3.30888 -0.0412171 0.111093 -0.00102147
180 1 0.199793 0.125133 0.0246109 0.0342523 -3.28801 0.125938 -0.0203901 0.0866647
1778 1 0.225008 0.124865 0.0499382 0.00792307 -3.29504 -0.0799571 0.00704063 -0.0260019
259 1 0.224904 0.150271 0.024829 0.0242226 -3.28577 -0.0786574 -0.112302 -0.0248334
1857 1 0.20037 0.14984 0.0500773 0.0309956 -3.29845 -0.000460366 0.051831 -0.0786828
257 1 0.199978 0.150221 -0.000423793 0.023807 -3.29859 -0.0160643 -0.0608407 0.0553034
178 1 0.224628 0.12506 -0.000126684 0.0227156 -3.29506 0.0390372 -0.0264368 -0.0162026
184 1 0.249531 0.124967 0.0247359 0.0165604 -3.29412 0.0635303 0.0813617 0.0358644
1861 1 0.24955 0.149953 0.0496228 0.0296486 -3.2953 -0.000665411 -0.00372298 0.0767472
1782 1 0.274502 0.124963 0.0499847 0.0144526 -3.30465 -0.00920084 0.0655005 -0.0391313
182 1 0.274297 0.124655 -0.000106751 0.0449132 -3.29611 0.00627098 0.0350639 0.0211582
188 1 0.299762 0.124659 0.0249832 0.0229618 -3.30615 -0.0218464 0.0737377 0.0403899
192 1 0.349994 0.124848 0.0249844 0.0136979 -3.29713 -0.0346196 -0.0178716 0.0143558
186 1 0.324738 0.125078 9.4804e-05 0.021944 -3.2939 0.0936477 -0.0223314 0.00697238
269 1 0.350116 0.149839 8.17009e-05 0.0197205 -3.29561 -0.0709059 0.0519964 -0.00921168
191 1 0.374888 0.0996947 0.0247069 0.0403821 -3.29241 -0.0361169 0.0941338 0.0315691
196 1 0.399337 0.125478 0.0247978 0.0636943 -3.29673 0.00185371 -0.186199 -0.0158401
273 1 0.399522 0.150153 -0.000165343 0.0303454 -3.288 -0.0664313 -0.11931 0.0968169
271 1 0.374533 0.14996 0.0250801 0.020417 -3.28839 0.0981676 0.0733431 0.0094373
1790 1 0.374873 0.125247 0.0500988 0.0265879 -3.29432 0.012859 -0.0459446 -0.00160379
195 1 0.424431 0.100149 0.0246949 0.00808455 -3.31542 0.0318769 0.0313767 0.0201895
1797 1 0.449506 0.100114 0.0499947 0.00860344 -3.30407 0.0639238 -0.0203155 -0.012594
200 1 0.449738 0.125124 0.0247061 0.0134126 -3.29043 -0.0593809 -0.0144086 0.0131883
1794 1 0.424584 0.124934 0.0497508 0.01539 -3.29837 0.0276543 0.0186032 0.0264233
203 1 0.525351 0.100354 0.0251454 0.0409522 -3.29901 -0.0348057 -0.0460634 -0.107974
204 1 0.499889 0.124975 0.0250528 0.0155145 -3.30106 -0.00203253 0.00689764 -0.0445298
1798 1 0.474567 0.125205 0.0497733 0.0159049 -3.29668 -0.0146032 -0.0390505 0.0425895
283 1 0.524979 0.150015 0.0249455 0.013647 -3.30157 -0.0431663 -0.00695593 0.0240976
1802 1 0.524959 0.124713 0.0500337 0.0434205 -3.2927 -0.0250232 0.0769383 -0.0946793
208 1 0.550303 0.125074 0.0249337 0.0157919 -3.29311 -0.0488643 0.0754506 0.0419078
206 1 0.57509 0.125008 -0.000113853 0.0241203 -3.29667 -0.0364696 0.119786 -0.0782074
287 1 0.574921 0.150167 0.0247499 0.0246696 -3.29731 0.00943249 0.00925753 0.0711675
212 1 0.599581 0.125035 0.02502 0.0249892 -3.29368 0.0786057 0.019026 -0.0131993
210 1 0.625603 0.12485 0.000190521 0.111987 -3.28664 -0.179308 0.0216419 0.0317089
1810 1 0.624541 0.125422 0.0504506 0.073948 -3.30399 0.0524706 -0.0980436 -0.0929305
1817 1 0.699816 0.0998755 0.0501008 0.0115144 -3.30458 0.0557319 -0.0483282 -0.00950553
215 1 0.674817 0.0997279 0.0251547 0.0146352 -3.30623 -0.0728815 0.0183242 -0.0739624
216 1 0.649926 0.124972 0.0251835 0.0192528 -3.29282 -0.000139067 -0.0394962 0.0643019
220 1 0.699877 0.12461 0.0249812 0.0106046 -3.29556 0.0112987 0.0268096 -0.0303683
214 1 0.674645 0.124642 0.000129444 0.018823 -3.30688 -0.00895847 -0.00729917 -0.0549576
295 1 0.674836 0.149723 0.0249506 0.0131975 -3.30241 -0.0108052 0.0577425 -0.0355173
297 1 0.69953 0.14984 -0.000201747 0.0125691 -3.29805 0.0162429 -0.0307108 0.0825614
1814 1 0.675171 0.124996 0.0500547 0.0211649 -3.29096 -0.0265357 -0.0559091 -0.00675086
219 1 0.725483 0.0998627 0.0248264 0.0394486 -3.29473 -0.0997928 -0.0567564 0.0525776
224 1 0.749672 0.12489 0.0247173 0.026383 -3.28614 0.0648051 0.0369641 0.133325
1821 1 0.75 0.0997769 0.0500478 0.0236397 -3.29801 0.00781287 0.0131669 -0.114783
223 1 0.775242 0.100408 0.0245668 0.0496356 -3.28886 -0.122567 -0.0501363 0.157433
228 1 0.800113 0.125259 0.0243735 0.0471684 -3.27819 -0.02382 -0.0586061 0.141683
303 1 0.774842 0.149654 0.0248423 0.0246178 -3.28934 -0.0582443 0.089175 0.0320145
1822 1 0.775314 0.124846 0.0498027 0.0270502 -3.32041 -0.0179104 -0.0113311 -0.0367834
231 1 0.875231 0.100076 0.0246537 0.0453557 -3.29568 0.0417433 -0.0644329 0.166878
232 1 0.850353 0.124776 0.0250529 0.0393732 -3.30773 -0.133514 0.0561232 -0.0460297
311 1 0.875094 0.149839 0.0253129 0.0286654 -3.30209 0.0147854 -1.64585e-05 -0.0894301
307 1 0.824538 0.150167 0.024817 0.0391063 -3.29573 0.130903 -0.0526554 -0.0168762
1826 1 0.824752 0.124859 0.0497301 0.024187 -3.31061 0.0150128 -0.00130801 0.00353229
236 1 0.900295 0.124815 0.0251206 0.0120175 -3.3053 -0.0375135 0.031212 -0.0062496
234 1 0.925303 0.124934 -0.000254918 0.0353948 -3.30728 0.0458745 -0.0112681 0.0791245
315 1 0.924783 0.149934 0.0248475 0.0318817 -3.30751 0.0218872 0.0718836 0.0676404
164 1 0.999989 0.125308 0.0253322 0.030252 -3.28987 0.0267878 -0.0771635 -0.0318542
239 1 0.975371 0.0999257 0.0251138 0.0280301 -3.29794 -0.0419803 0.10004 0.0500748
240 1 0.949664 0.125222 0.0253391 0.051217 -3.30032 0.0745559 -0.038731 -0.0855366
238 1 0.975077 0.124921 0.000375711 0.0206902 -3.2949 -0.0761763 0.0171068 0.0361716
317 1 0.950266 0.150184 0.000127861 0.0376187 -3.29374 -0.0094202 -0.10797 0.103948
248 1 0.0507912 0.174749 0.0254208 0.0678272 -3.29926 -0.102534 0.052918 -0.10716
244 1 -0.000277367 0.174746 0.0252288 0.0271906 -3.29538 0.109348 0.0256145 -0.114808
321 1 0.000154856 0.199925 -4.80467e-05 0.0194742 -3.30294 -0.0553052 -0.038151 0.117668
252 1 0.0999952 0.174856 0.0252933 0.0208954 -3.29888 0.045709 -0.0565484 -0.0120491
246 1 0.0751939 0.174898 0.000273362 0.0157188 -3.29209 -0.0213631 0.00398689 -0.0585639
1929 1 0.100725 0.199728 0.0502411 0.0243295 -3.30488 -0.100387 0.0362154 -0.0110267
256 1 0.15003 0.174912 0.0250806 0.0158314 -3.28891 -0.0354287 -0.0108557 -0.108163
254 1 0.174846 0.174933 -3.02494e-05 0.0113396 -3.3016 -0.0507416 0.00781195 -0.0489637
250 1 0.124756 0.175006 -0.000246725 0.0263359 -3.30384 0.145864 -0.0983271 0.0802327
335 1 0.174987 0.199739 0.0247748 0.00889883 -3.29735 -0.0515483 0.0912128 0.0464703
333 1 0.149846 0.200148 5.83883e-05 0.0223827 -3.30474 0.065884 -0.0742444 -0.0815718
260 1 0.19972 0.174741 0.0249678 0.0173147 -3.28716 -0.0194277 0.0172437 -0.00134834
337 1 0.199588 0.200139 -0.000183259 0.0294731 -3.30074 0.0969542 -0.0240816 -0.065499
263 1 0.275084 0.150188 0.0251051 0.0612586 -3.30102 -0.0227707 -0.171635 -0.0376268
264 1 0.249931 0.174765 0.0247363 0.0211969 -3.28886 0.0455002 0.123151 -0.0186108
343 1 0.274939 0.200057 0.0246377 0.0118435 -3.309 -0.0588671 -0.0649504 -0.0195087
1862 1 0.274635 0.175038 0.0497361 0.0130895 -3.29795 -0.0455103 0.0123526 0.0260272
267 1 0.324602 0.149832 0.0248777 0.0256916 -3.31041 0.0278111 -0.0249138 0.00173443
268 1 0.299923 0.17463 0.0250917 0.0333874 -3.28662 -0.0154887 0.0907271 -0.0452322
272 1 0.3498 0.174825 0.0251702 0.0161349 -3.30113 -0.0279814 0.0477096 -0.00326688
1866 1 0.324932 0.175112 0.0503623 0.0428522 -3.29689 -0.0335425 0.00535778 -0.103535
265 1 0.299438 0.149457 -0.00037428 0.0920547 -3.30609 0.0935794 0.144778 0.0487199
1873 1 0.400096 0.150089 0.0501447 0.0241108 -3.29902 -0.0452111 0.0468277 -0.0115318
276 1 0.400046 0.175048 0.0251083 0.0141985 -3.30579 -0.0460164 0.011372 0.0418492
1870 1 0.374716 0.17501 0.0503234 0.0242663 -3.31603 0.0544191 0.0619388 -0.061396
353 1 0.399983 0.200257 0.000127592 0.03684 -3.30356 0.0781782 -0.088667 -0.0236444
275 1 0.424425 0.149771 0.0248933 0.0343434 -3.28614 0.0690746 0.0855334 -0.0261169
280 1 0.449338 0.174999 0.024824 0.0303076 -3.30134 0.0973798 -0.0841663 -0.0368723
355 1 0.425317 0.200163 0.0253331 0.0730856 -3.286 -0.168838 0.0101678 -0.144983
279 1 0.474941 0.149904 0.0249083 0.0174004 -3.30083 -0.0286249 0.0862897 -0.0437506
1881 1 0.499867 0.150093 0.049798 0.0109752 -3.30773 0.0585592 0.040369 -0.0181279
284 1 0.499786 0.175204 0.0247082 0.0209405 -3.31019 0.0102904 -0.0287477 0.0386791
1882 1 0.524842 0.175576 0.0498346 0.0371005 -3.30351 0.0377595 -0.149064 -0.0308239
281 1 0.499859 0.15015 -2.84011e-05 0.0126577 -3.30052 -0.0728055 -0.0300313 0.016679
278 1 0.474695 0.175354 -0.000268997 0.0295803 -3.30167 -0.0269267 -0.0885748 0.112033
282 1 0.525004 0.174666 -0.000196327 0.0451109 -3.28943 -0.0572232 0.175003 0.0446206
285 1 0.549884 0.150349 -8.53621e-05 0.0222743 -3.2878 0.0387682 -0.151088 -0.0394062
288 1 0.549872 0.174937 0.0249834 0.0165541 -3.29628 0.051456 0.0486585 -0.0531581
286 1 0.574846 0.174743 -0.000441239 0.0367385 -3.30493 0.0374503 0.149484 0.113894
291 1 0.62472 0.149696 0.0249502 0.035566 -3.30707 0.0469986 0.065318 0.0437906
292 1 0.599955 0.175261 0.0249975 0.0289209 -3.30223 -0.0439375 -0.123195 -3.02223e-06
290 1 0.625076 0.174932 -1.87733e-05 0.0292415 -3.29355 -0.0692763 0.0293521 -0.0653729
1889 1 0.599367 0.150009 0.0500157 0.0280234 -3.30392 0.0313569 0.0723131 -0.0131958
296 1 0.649619 0.174802 0.0245803 0.0453392 -3.29958 0.127302 -0.0346229 0.146153
293 1 0.649921 0.149886 -0.000558665 0.0722384 -3.2911 0.0352313 0.069656 0.186193
300 1 0.699622 0.174946 0.0248181 0.0115471 -3.29061 0.0165164 -0.046495 0.0115904
294 1 0.674928 0.175186 -5.20349e-05 0.0176672 -3.28661 -0.0621146 -0.079353 -0.0135173
373 1 0.649995 0.20006 0.000185071 0.0282465 -3.3062 -0.029151 0.0775811 -0.0927585
1897 1 0.700034 0.149835 0.0497357 0.015557 -3.2943 0.00585271 0.0161757 0.0425091
299 1 0.724811 0.149869 0.0248116 0.00441275 -3.30082 -0.0177472 0.0101382 -0.0108202
304 1 0.749933 0.174715 0.0249828 0.0263333 -3.29303 0.0257086 -0.0307981 -0.0735578
298 1 0.724485 0.175158 -0.000253321 0.0272372 -3.30966 0.0972339 -0.0533575 0.0388433
1901 1 0.75005 0.149836 0.0499038 0.00909224 -3.30832 -0.0263041 -0.0401151 -0.0182857
1981 1 0.749611 0.200084 0.0499784 0.0334259 -3.29867 0.0530661 -0.00419172 0.0364133
308 1 0.79969 0.17493 0.0247713 0.0119448 -3.29986 -0.0515863 0.0246882 -0.0124875
383 1 0.774946 0.199719 0.0248043 0.0273957 -3.29447 0.0563549 0.0689502 0.0949653
1905 1 0.799925 0.150014 0.0497875 0.0154637 -3.29509 -0.0599347 -0.00443399 0.0231457
385 1 0.800069 0.200304 -0.000145465 0.0405917 -3.2852 -0.108904 -0.131144 -0.0221341
312 1 0.850003 0.174838 0.0244056 0.0418498 -3.3045 -0.0284039 -0.00278967 0.0584996
391 1 0.87493 0.199992 0.0248313 0.0113205 -3.30431 -0.0366935 0.0258401 0.0409816
1906 1 0.82492 0.174876 0.0494949 0.0208085 -3.30253 0.0205596 0.0474426 0.0296267
310 1 0.875343 0.174521 5.86842e-05 0.0367703 -3.29479 -0.0457833 0.0607503 -0.0213572
387 1 0.825034 0.199797 0.0243807 0.043216 -3.3084 -0.0448681 0.0625956 0.155903
1989 1 0.849678 0.200066 0.0497268 0.0209843 -3.29582 0.0269079 -0.0721548 -0.025219
306 1 0.824439 0.174986 -0.00047657 0.0557107 -3.30115 0.0749658 -0.0424213 0.110832
313 1 0.900104 0.149809 -0.000202093 0.0351282 -3.2971 0.0588868 0.0035809 0.0781486
316 1 0.899981 0.175004 0.0250337 0.00850838 -3.29252 0.00151848 -0.0301615 -0.00864614
314 1 0.925288 0.175177 0.000150184 0.0191207 -3.3009 0.0476984 -0.0566938 0.10214
393 1 0.900005 0.199784 0.000292267 0.0307741 -3.29539 0.0556694 0.0439547 -0.0941783
319 1 0.975117 0.149963 0.0254318 0.0266804 -3.28655 -0.086471 -0.0602481 -0.0753885
320 1 0.95048 0.174812 0.0255412 0.0769212 -3.29609 -0.216046 -0.00628203 -0.129575
318 1 0.974727 0.174927 -0.000189662 0.0608342 -3.28998 0.152514 0.0445284 0.12916
1841 1 1.00039 0.14991 0.0500084 0.0257859 -3.30865 0.039024 -0.0352553 0.0922501
323 1 0.0252216 0.199416 0.0252491 0.0333799 -3.30627 0.0170321 0.0271661 -0.00934749
328 1 0.050399 0.224835 0.0252242 0.0133595 -3.30707 -0.0328677 -0.0595848 -0.0416077
322 1 0.0253304 0.224561 -9.39193e-05 0.0238935 -3.29745 0.016212 0.0850887 0.0715549
325 1 0.0502037 0.199749 0.000479189 0.0291413 -3.29911 0.0213685 -0.0164746 -0.063074
327 1 0.0756591 0.200018 0.0250652 0.025592 -3.29788 0.00350457 0.0123876 0.0221644
332 1 0.100842 0.224746 0.0248432 0.0365529 -3.30486 -0.0922522 0.0651582 0.0549179
407 1 0.075317 0.249728 0.0253266 0.0160256 -3.30163 -0.0202464 -0.0462238 -0.0512718
329 1 0.100267 0.199654 -0.000223049 0.0275187 -3.27556 0.00448018 0.119462 0.141877
409 1 0.100315 0.249991 -9.58567e-05 0.0158212 -3.3011 -0.115934 -0.0153683 0.037271
331 1 0.125011 0.199665 0.0249692 0.0181808 -3.29234 0.051158 0.0259722 0.0149787
336 1 0.149808 0.225175 0.0247026 0.0474684 -3.30092 0.0837738 -0.115106 0.0461432
411 1 0.125224 0.250134 0.0247841 0.0316488 -3.28218 -0.00998035 -0.0336403 0.0620693
330 1 0.125302 0.225029 -0.000176276 0.0164193 -3.27386 -0.139226 -0.0464017 0.00265468
339 1 0.22481 0.199641 0.0245937 0.0357932 -3.30131 -0.011793 0.0587154 0.0381232
340 1 0.200111 0.224859 0.0245479 0.014258 -3.29 -0.00305515 -0.069657 -0.00109157
419 1 0.224755 0.25014 0.0244905 0.0131555 -3.29164 0.0125327 -0.0378726 0.0137463
1938 1 0.224449 0.224764 0.0494393 0.027768 -3.28372 -0.0252104 0.0538268 0.0722234
344 1 0.249482 0.2251 0.0245329 0.0268559 -3.29954 0.0175101 -0.0558316 0.00490981
423 1 0.274813 0.249967 0.0252083 0.0393673 -3.29769 -0.0377934 0.0174428 -0.134004
2021 1 0.24958 0.249385 0.0496277 0.0698334 -3.28802 -0.00121962 0.162233 0.0578401
347 1 0.324369 0.199675 0.0249548 0.052633 -3.29339 0.0728051 0.0861783 0.0128484
348 1 0.299655 0.224939 0.0247557 0.0141469 -3.29994 0.0802316 0.0307091 0.0103924
352 1 0.349923 0.224836 0.0253475 0.0366496 -3.29903 -0.0884574 -0.0763147 -0.0817331
1949 1 0.349535 0.200131 0.0496534 0.0573433 -3.30538 0.060538 -0.0285963 0.058353
351 1 0.375057 0.199924 0.0248787 0.0237493 -3.3043 -0.0136752 0.00221538 0.075729
356 1 0.400085 0.225196 0.0249224 0.0283791 -3.30123 -0.046773 -0.0705507 -0.0192264
1950 1 0.374866 0.224937 0.0500895 0.0104331 -3.30361 0.0576683 0.0183056 0.00508309
433 1 0.399555 0.249752 6.50384e-06 0.0226376 -3.29604 0.0633807 -0.0181177 0.00990161
2033 1 0.399722 0.250314 0.0502173 0.0291038 -3.29829 0.0602611 -0.0995342 -0.0293541
350 1 0.374475 0.224746 -1.12803e-05 0.0310796 -3.29449 0.0509123 0.0372467 -0.00193752
360 1 0.449883 0.225148 0.024945 0.0165539 -3.30125 -0.00633104 0.0263149 -0.0433387
1954 1 0.424333 0.225231 0.0500526 0.0586236 -3.29449 0.105774 0.10142 0.0209886