ITEM: TIMESTEP
5000
ITEM: NUMBER OF ATOMS
32000
ITEM: BOX BOUNDS pp pp pp
2.0214678228186558e+00 7.8978532177176191e+01
-7.3520378156091226e-01 8.1735203781555839e+01
-7.3501882633875937e-01 8.1735018826333700e+01
ITEM: ATOMS id type xs ys zs c_csym c_peratom fx fy fz
8 1 0.0494609 0.0252407 0.024757 0.0521203 -3.34948 0.12991 -0.0429417 0.0758478
83 1 0.0247603 0.0502306 0.024919 0.0202467 -3.34527 -0.00710855 -0.0395417 0.0424396
1602 1 0.0247839 0.0253243 0.0497907 0.0219547 -3.34677 0.0541405 -0.0746881 0.0150362
1685 1 0.0501287 0.0500944 0.0498644 0.0137814 -3.35253 -0.0357163 -0.0424466 0.0327596
1681 1 -0.00038736 0.0500435 0.0498599 0.0232946 -3.34111 0.101176 0.00945194 -0.0220992
81 1 0.000179429 0.0502216 6.51323e-05 0.0215888 -3.35061 -0.0742638 -0.0567088 -0.0358164
5 1 0.0499078 -2.20502e-05 0.000103611 0.00989841 -3.35051 0.0384549 -0.0393901 -0.0603894
3 1 0.0253355 -0.000121168 0.024901 0.0305119 -3.34226 -0.114179 -0.0015786 0.04179
2 1 0.0246217 0.0247674 7.27083e-05 0.0339837 -3.34247 0.0372493 0.0536733 -0.0229894
12 1 0.100006 0.0250449 0.0246495 0.0178024 -3.35077 0.0369143 0.0133038 0.122086
87 1 0.0751608 0.049879 0.0248972 0.0128146 -3.35038 -0.0197423 0.0450074 0.056383
1606 1 0.0750341 0.0250781 0.0499067 0.00800675 -3.35708 -0.0326838 -0.0495967 -0.0326021
1689 1 0.10012 0.0498302 0.0501606 0.0201002 -3.34903 -0.00129239 0.038237 -0.0705319
6 1 0.074981 0.0251192 6.18354e-05 0.0106633 -3.34365 -0.0517288 -0.0332275 -0.0247961
1609 1 0.100128 0.000133492 0.0499605 0.0068547 -3.35172 0.00224078 0.0268313 0.0142152
7 1 0.074966 0.00010106 0.0249401 0.00831296 -3.35422 -0.0213426 0.0371394 0.0251084
16 1 0.149891 0.0251086 0.02493 0.011697 -3.3398 0.00764232 0.0246473 -0.0590906
91 1 0.124841 0.0503373 0.0246879 0.0319334 -3.35574 0.0578555 -0.066274 0.0569834
1610 1 0.125094 0.0253032 0.0498168 0.0179447 -3.34913 -0.0591125 -0.0624969 0.037086
1693 1 0.150095 0.0498456 0.0496985 0.0205442 -3.35432 -0.0472697 0.113978 0.0785559
93 1 0.149934 0.0498501 -0.000356575 0.0247437 -3.35103 0.0344944 0.0836335 0.0532689
10 1 0.125146 0.0251867 -0.000225267 0.0126267 -3.34384 -0.0093675 -0.00795384 0.0145782
20 1 0.200052 0.0252871 0.024953 0.0182542 -3.35293 0.00779043 -0.084805 -0.0644343
95 1 0.174846 0.0497257 0.0245401 0.0471967 -3.35147 0.0366212 0.101443 0.062744
1614 1 0.175001 0.0254888 0.0498081 0.0361333 -3.34628 0.0365834 -0.112581 0.0932934
1697 1 0.200182 0.0501673 0.0499473 0.0106542 -3.34488 -0.0387964 0.026929 0.0319772
97 1 0.19998 0.0502385 -0.000115431 0.0226424 -3.34516 0.00106594 -0.155657 0.0214007
15 1 0.174947 0.000370831 0.0250036 0.0140627 -3.35146 0.0470973 -0.0441093 0.00381369
14 1 0.174894 0.0247841 -0.000352355 0.0253885 -3.35406 0.0588387 0.0502037 0.040192
24 1 0.249909 0.0251316 0.0249579 0.00578675 -3.35784 -0.00590939 0.0128318 0.0112367
99 1 0.224935 0.049889 0.0247551 0.0250847 -3.35028 0.0892156 0.0788102 -0.00375879
1618 1 0.224547 0.025461 0.050121 0.057621 -3.34301 0.140166 -0.0909208 -0.030767
1701 1 0.249895 0.0502267 0.0499912 0.0201674 -3.34744 0.0338561 -0.0450703 -0.0148719
103 1 0.275002 0.049922 0.0250736 0.0212135 -3.35149 0.0127467 0.0545829 -0.0109384
1622 1 0.274988 0.0250494 0.0502132 0.0123984 -3.34909 -0.0756362 -0.0189743 -0.0752872
19 1 0.225016 4.51924e-05 0.0246226 0.0453402 -3.35033 -0.0192226 0.0683801 0.172206
22 1 0.275262 0.0251306 -0.000127531 0.0150563 -3.35658 9.7091e-05 -0.0359683 0.0263649
28 1 0.300374 0.025521 0.0250414 0.0663346 -3.33847 -0.128744 -0.133206 -0.00581163
1705 1 0.299767 0.0497415 0.0502194 0.0295235 -3.34409 0.0717143 0.0809878 0.00286883
107 1 0.325127 0.0498261 0.0252661 0.0239221 -3.34747 0.0675945 0.0909867 -0.0494439
1626 1 0.325174 0.0247957 0.050156 0.0270531 -3.353 0.0280165 0.0878259 0.054235
105 1 0.300317 0.0500602 0.000139629 0.0148332 -3.3545 -0.0583583 0.0423101 -0.063631
26 1 0.325115 0.0250055 -3.0742e-05 0.00897248 -3.35333 0.028275 0.00841387 -0.0356657
32 1 0.350325 0.0249344 0.0248502 0.0175394 -3.35893 -0.00782376 0.0236136 0.0652101
1709 1 0.350112 0.0498704 0.0499118 0.00743317 -3.36143 -0.0372945 0.0130136 0.0455159
111 1 0.37522 0.050277 0.0247989 0.0285685 -3.34682 -0.0389499 -0.138108 -0.00768346
1630 1 0.375416 0.0250296 0.0500955 0.0202432 -3.35392 -0.136668 -0.00379306 0.00817013
31 1 0.375269 -6.78052e-05 0.0249197 0.024664 -3.33944 -0.0426634 0.0443412 0.075562
36 1 0.39999 0.0249126 0.0252489 0.0309066 -3.35571 0.0187987 0.054093 -0.123729
1713 1 0.39993 0.0503325 0.0498296 0.0256945 -3.34847 0.0783638 -0.0741178 0.0574253
115 1 0.425098 0.0500232 0.0250334 0.0131303 -3.34417 -0.0798933 -0.0649923 -0.0433943
1634 1 0.425123 0.0250597 0.0499625 0.0165089 -3.34657 -0.0334367 0.000110178 0.0158889
113 1 0.400093 0.0495299 -0.000523223 0.0576889 -3.35251 -0.00365632 0.0798039 0.0989076
34 1 0.425076 0.0249053 8.08527e-05 0.0132409 -3.35742 -0.0498523 -0.0471543 -0.0194129
40 1 0.449766 0.0250183 0.0251398 0.0191293 -3.35151 0.0574488 -0.0427466 -0.0690405
1717 1 0.449711 0.0502292 0.049941 0.0403131 -3.34089 0.0335515 -0.111679 0.110095
119 1 0.475042 0.0498731 0.0254475 0.0300908 -3.35598 0.0277664 0.0115177 -0.131542
1638 1 0.474755 0.0250212 0.0500305 0.0107547 -3.35407 0.0195297 0.0163126 -0.00377669
117 1 0.450168 0.0498491 2.89481e-05 0.00570056 -3.34797 0.0172937 -0.0218395 0.0473796
1721 1 0.500142 0.0500047 0.0498386 0.0191536 -3.35663 -0.0104833 0.00661521 0.0905607
121 1 0.499987 0.0496927 2.95768e-05 0.0157284 -3.34244 -0.0130295 0.0721134 0.0464303
44 1 0.500153 0.0250466 0.0252186 0.0127501 -3.34822 -0.0253477 -0.0307889 -0.0536334
123 1 0.524981 0.0499424 0.0248992 0.0135554 -3.34865 0.025349 0.0793075 0.0336705
1642 1 0.52519 0.0250112 0.049963 0.0060804 -3.3464 -0.0187406 0.0349132 0.0149966
48 1 0.550125 0.025259 0.0248986 0.0139756 -3.34624 0.023174 -0.0418152 0.0912097
1725 1 0.550186 0.0500979 0.0499335 0.0116357 -3.35038 0.0128559 0.00579659 0.0239908
125 1 0.550255 0.0500186 -8.64455e-05 0.0158329 -3.34926 -0.00639023 0.0711537 0.0189662
127 1 0.575267 0.0500494 0.0252623 0.0160981 -3.34707 -0.0392863 0.0436047 -0.0727097
1646 1 0.57527 0.0252322 0.0500546 0.00820017 -3.35 -0.0331459 -0.0233626 0.00829185
52 1 0.600128 0.0251373 0.0250897 0.0103275 -3.34507 0.00869807 -0.0369767 -0.0709721
1729 1 0.600014 0.0503329 0.0501318 0.00753514 -3.33788 0.00546555 -0.0321248 0.0430472
46 1 0.574917 0.0249697 0.000207699 0.0162516 -3.34879 0.047721 0.0175571 -0.0599324
1649 1 0.600146 6.74998e-05 0.0503457 0.0118209 -3.34627 -0.0413835 -0.013887 -0.0410255
47 1 0.57526 7.60563e-05 0.0253235 0.018914 -3.35729 -0.033093 -0.0100319 -0.0737938
131 1 0.624752 0.0501175 0.025273 0.0228017 -3.34527 0.0541128 3.26307e-05 -0.128864
1650 1 0.624598 0.025194 0.0501118 0.0190078 -3.33537 0.0647968 -0.0261965 0.0295981
51 1 0.62499 9.91266e-05 0.0252322 0.0117484 -3.35656 0.0217588 -0.0411855 -0.103312
56 1 0.649683 0.025215 0.0251489 0.0239237 -3.34344 0.0366199 -0.0254525 -0.00820375
1733 1 0.649677 0.049805 0.0499953 0.0354566 -3.35029 0.0330507 0.107795 0.0750391
1653 1 0.649709 -6.90681e-05 0.0502889 0.0194048 -3.35694 0.0467042 0.0203375 -0.00780016
135 1 0.674977 0.0501891 0.0255832 0.0670176 -3.35356 0.0144654 -0.052768 -0.141534
1654 1 0.674956 0.0251508 0.0500346 0.0131116 -3.35551 0.0220404 -0.0324482 0.0101112
60 1 0.699813 0.0246656 0.0251509 0.0323429 -3.34454 -0.00549439 0.0612384 0.0487335
1737 1 0.700338 0.0504188 0.0501191 0.05173 -3.34388 -0.121728 -0.0703603 0.016985
137 1 0.699881 0.0495541 0.000237871 0.0393075 -3.35262 -0.0211023 0.122059 -0.0184293
55 1 0.674508 0.000132005 0.0251329 0.0535276 -3.34893 0.0978238 -0.0527678 0.0796819
1657 1 0.700205 -0.000274487 0.0502909 0.0398887 -3.35277 -0.084987 0.0387393 -0.0796037
139 1 0.724673 0.0500475 0.0252369 0.0264963 -3.3505 0.0699692 -0.0061727 -0.0648134
1658 1 0.724685 0.025228 0.0498827 0.0381257 -3.35224 0.0677237 -0.0910858 0.0678373
59 1 0.724796 -0.000371064 0.0252089 0.0232689 -3.3503 0.0467561 0.0870162 -0.0224519
64 1 0.749815 0.0250973 0.0250757 0.0139927 -3.36032 0.0522747 -0.0226876 0.0476607
143 1 0.77529 0.0499944 0.0250021 0.01813 -3.35339 -0.0707172 -0.024405 0.052861
1662 1 0.775208 0.0247358 0.0500503 0.0210294 -3.36129 -0.0600073 0.0750709 0.0103469
1741 1 0.750087 0.0499329 0.0502674 0.0229788 -3.35533 0.00477942 0.0135313 -0.0662342
63 1 0.774919 0.000198496 0.0250666 0.013355 -3.35475 -0.0470131 -0.0526484 0.0100484
1661 1 0.749779 -9.92392e-05 0.0503543 0.0180865 -3.34967 -0.00307891 0.102425 -0.078771
68 1 0.800002 0.0249342 0.0246874 0.0332253 -3.34898 0.0617404 0.0180843 0.160852
147 1 0.825085 0.0504172 0.0251765 0.0354286 -3.35125 -0.0644024 -0.109745 -0.0545507
1666 1 0.825211 0.0249521 0.0501185 0.011194 -3.35388 -0.104487 -0.0384941 -0.0230782
1745 1 0.800295 0.0499909 0.0501367 0.0107631 -3.35626 -0.0574617 -0.0262006 0.00432909
1665 1 0.79994 -0.000235171 0.049986 0.0111157 -3.34243 -0.00657006 0.112886 0.00620187
67 1 0.825089 -0.000149441 0.0251836 0.0128931 -3.35995 -0.019742 0.0324269 -0.0162105
65 1 0.799818 -0.00024152 -0.000147896 0.0231256 -3.34377 0.0503575 0.00395137 0.0515156
72 1 0.850159 0.0251415 0.0252429 0.0147188 -3.35064 -0.0232354 -0.00264128 -0.0824676
151 1 0.875253 0.0498619 0.0249 0.0209149 -3.35248 -0.122176 0.0925141 -0.00250791
1670 1 0.875246 0.0254178 0.04989 0.029383 -3.33903 -0.0505018 -0.0736352 0.0397043
1749 1 0.849687 0.0499785 0.0501245 0.0411722 -3.35292 0.0965147 0.106234 -0.024069
1669 1 0.850455 2.79239e-05 0.0499272 0.0191408 -3.35472 -0.0595609 -0.0378124 0.0202755
76 1 0.89974 0.0252675 0.0248032 0.0293782 -3.34662 0.0999127 -0.0324176 0.0263294
155 1 0.92503 0.0502699 0.0251413 0.0208394 -3.35163 -0.0240026 -0.0226868 -0.076304
1674 1 0.925235 0.0251894 0.0497384 0.0339249 -3.34943 -0.0893165 -0.0323918 0.0440819
1753 1 0.899903 0.0500559 0.0502891 0.03067 -3.3448 0.0754571 0.0155279 -0.0756944
1673 1 0.899877 0.000254415 0.0498408 0.0226707 -3.34301 0.0286621 0.00372257 0.076675
4 1 0.999928 0.0247437 0.0250447 0.0232703 -3.3561 -0.0315378 0.0473052 -0.0739095
78 1 0.975033 0.0249357 -0.000309193 0.011732 -3.35359 -0.00754902 0.0222521 0.0906108
80 1 0.949931 0.0249791 0.0245784 0.0300275 -3.35761 0.066078 -0.0108215 0.075199
159 1 0.97491 0.0502862 0.0244202 0.0667419 -3.34702 0.0152309 -0.143869 0.116448
1678 1 0.975056 0.0250898 0.0495671 0.0323265 -3.34985 -0.0665387 -0.0460134 0.0266139
1757 1 0.949665 0.0497845 0.0500557 0.0510713 -3.34341 0.113906 0.0649034 -0.0455618
79 1 0.974804 -0.000412485 0.0248995 0.020935 -3.35404 0.0313011 0.0712771 0.00971486
157 1 0.949989 0.0503008 -0.000196142 0.0187306 -3.35291 0.000212344 -0.0596833 0.00374233
88 1 0.0500625 0.074779 0.0252377 0.0254226 -3.35323 0.0403836 0.049092 -0.0826655
163 1 0.0251146 0.0999661 0.0245631 0.0459891 -3.35846 0.0183349 -0.00518971 0.0811931
1682 1 0.0249586 0.0749794 0.0499828 0.00838147 -3.3493 -0.0408485 -0.0117563 0.000245559
1765 1 0.049945 0.099751 0.049762 0.0165418 -3.35658 0.0287894 0.0217675 0.0568983
161 1 7.01027e-05 0.100114 5.84879e-06 0.00724723 -3.35511 -0.030217 -0.00749098 0.0198865
165 1 0.0503652 0.0997553 -0.00027227 0.0261009 -3.35231 -0.0839672 0.0429417 0.0804753
92 1 0.100094 0.0750215 0.0250386 0.00828137 -3.35043 -0.0932296 -0.032085 -0.0151923
167 1 0.0750243 0.0998015 0.0250043 0.0107667 -3.35308 0.021669 -0.047521 -0.0105437
1686 1 0.0752885 0.0747218 0.0503889 0.0429829 -3.34825 -0.0521194 0.0612631 -0.127889
1769 1 0.100081 0.0998625 0.0499236 0.0111125 -3.34701 -0.0881644 0.0161536 0.0560072
169 1 0.100429 0.100217 -5.0938e-06 0.0330724 -3.34491 -0.119602 -0.0612254 0.0305985
96 1 0.150235 0.0752998 0.0250544 0.0405974 -3.34951 -0.0621468 -0.131123 -0.0474705
171 1 0.124622 0.100022 0.0252029 0.0408419 -3.34058 0.114784 0.0367152 -0.0358704
173 1 0.150015 0.10031 0.000453053 0.0355022 -3.35716 0.0188027 -0.0632 -0.105403
1690 1 0.124974 0.0749968 0.0499714 0.0100542 -3.34977 0.0373454 -0.0394645 0.0119157
1773 1 0.150248 0.0998536 0.0494793 0.0575236 -3.34972 -0.0962232 0.0722513 0.129765
90 1 0.12498 0.0750088 0.000138172 0.0161058 -3.35676 0.0708951 0.023418 -0.0478739
100 1 0.199859 0.0750943 0.0248472 0.019069 -3.3488 0.0308259 -0.0615777 0.0489249
175 1 0.175147 0.100012 0.0249368 0.0203157 -3.34485 0.0731455 0.0718014 -0.0455784
1694 1 0.175126 0.0748262 0.0499854 0.0157522 -3.34538 -0.0147132 -0.0363995 -0.0155962
1777 1 0.199596 0.100148 0.0501169 0.0394349 -3.34816 0.0835419 -0.0314925 -0.0715252
94 1 0.17493 0.0748297 9.88967e-05 0.0277267 -3.3474 -0.0527 0.0991822 -0.0399031
177 1 0.200325 0.0996028 -0.00024108 0.053184 -3.35375 -0.100047 0.0775377 0.0435674
104 1 0.250421 0.0753307 0.0248498 0.0320051 -3.35348 -0.0686653 -0.0623084 -0.012032
179 1 0.224767 0.0999084 0.0248872 0.0260836 -3.35972 0.105697 0.0362792 0.0323845
1698 1 0.225282 0.0749067 0.0497001 0.0325291 -3.35639 -0.0528064 0.0711749 0.0560782
1781 1 0.25023 0.100036 0.0498344 0.0213591 -3.36041 -0.0385122 0.0895151 0.015185
183 1 0.275126 0.100621 0.0249023 0.0256257 -3.35229 -0.0266976 -0.0492108 0.00182851
1702 1 0.275161 0.0752426 0.0498246 0.0174994 -3.34522 -0.0525067 -0.0318493 0.0452453
98 1 0.225194 0.0746161 -7.38512e-05 0.0360484 -3.34985 0.0176011 0.0763838 0.0376191
108 1 0.300141 0.0749713 0.0251941 0.0118606 -3.35577 -0.00197912 0.0306115 -0.06912
1785 1 0.299947 0.100314 0.0498732 0.00979118 -3.34534 0.0252597 0.00458333 -0.0295891
187 1 0.325226 0.100134 0.0250464 0.013728 -3.35735 -0.0320716 -0.0626837 -0.0195053
1706 1 0.324832 0.0749287 0.0501562 0.017533 -3.3584 0.0590647 -0.0104044 -0.0538331
185 1 0.300147 0.10028 0.000313839 0.0256197 -3.35553 0.0148532 -0.0346957 -0.107354
112 1 0.35004 0.0750314 0.0244527 0.0470303 -3.34747 -0.0474618 -0.0411271 0.162655
1789 1 0.3501 0.0999331 0.0497219 0.0177306 -3.34553 -0.0855949 -0.0496554 0.0354488
189 1 0.350265 0.0997057 -0.000229466 0.0197831 -3.34748 0.00923009 0.0695704 0.0562678
191 1 0.375314 0.099586 0.0250823 0.0375067 -3.35435 -0.0347113 0.113051 -0.0728565
1710 1 0.375023 0.074924 0.0497135 0.00910678 -3.3446 -0.0292948 0.0284011 0.0464864
110 1 0.375324 0.0748808 -0.000161097 0.00922423 -3.33322 0.00555159 -0.00634951 -0.0591656
116 1 0.40013 0.0746801 0.024559 0.0318427 -3.34075 0.0503058 0.0731695 0.0842162
1793 1 0.400099 0.100064 0.0500246 0.0161431 -3.34954 -0.0134141 0.00382156 -0.0223662
195 1 0.425106 0.100022 0.0250747 0.0192249 -3.36032 0.00935439 -0.0369256 -0.0105019
1714 1 0.42492 0.0751076 0.0499394 0.0161745 -3.34648 -0.0221221 -0.0299656 0.0357106
114 1 0.425342 0.0746131 0.000183115 0.0216462 -3.34436 -0.0276433 0.0143384 -0.0787247
120 1 0.450124 0.0745222 0.0253293 0.0358568 -3.34235 0.0038715 0.137624 -0.0931456
1797 1 0.450067 0.0998011 0.0501301 0.0063338 -3.34865 -0.00471145 0.0654397 0.0378506
199 1 0.474712 0.09993 0.0252221 0.0344997 -3.34873 0.0875123 -0.0394071 -0.0618225
1718 1 0.474899 0.0749029 0.0502552 0.0196375 -3.34366 0.0774038 -0.0188451 -0.0527706
1801 1 0.499924 0.0998666 0.0500054 0.0239115 -3.35299 0.0528785 -0.0340882 0.0461344
124 1 0.500093 0.0751445 0.0248867 0.0262836 -3.35951 0.000746625 -0.0456541 0.0689287
118 1 0.475165 0.0749328 9.73118e-05 0.013023 -3.35217 0.00891839 -0.0194596 0.037194
203 1 0.52498 0.0999252 0.0253642 0.0280223 -3.34487 0.013644 -0.0677591 -0.0827514
1722 1 0.525451 0.0748653 0.0503912 0.0500579 -3.35175 -0.0904048 0.0709182 -0.117527
122 1 0.524899 0.0749314 -0.000221414 0.0183143 -3.35431 0.0676846 0.00939314 0.0714194
128 1 0.549941 0.0749515 0.0250985 0.0104536 -3.36237 0.0184092 0.0139808 -0.0157044
1805 1 0.550267 0.100245 0.0500892 0.0246505 -3.35012 -0.0745439 -0.0700486 0.00734261
201 1 0.500008 0.100116 -9.46246e-05 0.0125803 -3.35922 -0.0288632 -0.0300372 0.0255582
207 1 0.575113 0.0998829 0.025045 0.0123166 -3.35133 -0.0563376 0.0423851 -0.0212024
1726 1 0.575293 0.0750964 0.0503855 0.0305508 -3.34606 -0.131757 -0.0135686 -0.116753
132 1 0.60014 0.0749558 0.0249465 0.0160216 -3.3477 -0.0377261 0.0157649 0.0171666
1809 1 0.599607 0.0999934 0.0498673 0.0428831 -3.34519 0.109778 0.0600456 0.0658564
126 1 0.574873 0.0750658 2.60299e-05 0.0122708 -3.34854 -0.00762023 -0.0424228 0.0233833
211 1 0.624976 0.0998986 0.0250785 0.0106373 -3.34903 0.0406329 0.0109436 -0.0151061
1730 1 0.625008 0.0752749 0.0502397 0.0174979 -3.35358 0.00709057 -0.0147868 -0.0287542
136 1 0.649958 0.0749056 0.0250755 0.0155019 -3.35417 0.0114466 0.0188365 -0.00424257
1813 1 0.650144 0.100146 0.0499778 0.0150957 -3.35639 -0.0205546 -0.0441565 0.023767
215 1 0.674675 0.100132 0.0247209 0.0269176 -3.35205 0.0191945 0.00392562 0.0237336
1734 1 0.675164 0.0749532 0.0499776 0.0302262 -3.35209 -0.0862959 0.0477587 0.0521435
140 1 0.69972 0.0752932 0.0247675 0.046561 -3.34369 0.0619271 -0.0664151 0.0859322
1817 1 0.699658 0.100128 0.0499786 0.0187221 -3.35257 0.0231897 0.00593657 -0.00995027
217 1 0.700138 0.0997986 -0.000143488 0.0329056 -3.33897 -0.0534964 0.126639 0.0537295
219 1 0.724691 0.100101 0.0251739 0.0372383 -3.35026 0.0624282 -0.00157381 -0.0438833
1738 1 0.724994 0.0752424 0.0499813 0.0138598 -3.35254 -0.0123643 0.0182923 0.0203696
144 1 0.749799 0.0746761 0.0248409 0.0320069 -3.35061 0.0255238 0.0102338 0.0485522
223 1 0.774959 0.0995969 0.0248629 0.0333628 -3.34108 0.0680203 0.0896317 0.0570637
1742 1 0.77507 0.074968 0.050006 0.0111772 -3.35644 -0.000688745 -0.0192765 0.0571016
1821 1 0.750254 0.0998245 0.0496742 0.0424223 -3.353 -0.0536193 0.0486333 0.080447
148 1 0.799974 0.0752678 0.0251051 0.0151367 -3.34324 0.0112642 -0.0717056 -0.00713405
227 1 0.825141 0.0999188 0.0250219 0.0258693 -3.35353 -0.0351126 0.0867001 -0.0193661
1746 1 0.82471 0.0753235 0.0501859 0.0408614 -3.34275 0.0985985 -0.0448513 -0.0254632
1825 1 0.799922 0.100338 0.0501429 0.0206797 -3.34982 -0.0336226 -0.0604135 -0.0364363
146 1 0.824816 0.0749826 0.000217443 0.0198761 -3.34629 0.0404772 -0.0119476 -0.0487353
152 1 0.850049 0.0751099 0.0249538 0.0093815 -3.3515 0.0373578 -0.0518956 0.0241849
231 1 0.875082 0.100198 0.0249622 0.012897 -3.34131 -0.0471545 -0.0479911 -0.148077
1750 1 0.875187 0.0750434 0.0499093 0.0108309 -3.35002 -0.0602553 -0.052248 -0.00266556
1829 1 0.850377 0.0999822 0.0496156 0.047584 -3.33976 -0.0938471 -0.0198071 0.0945975
229 1 0.849947 0.1002 -6.78421e-05 0.00894418 -3.36493 0.0578323 0.0185757 0.0361664
156 1 0.900001 0.0747971 0.0249501 0.0231125 -3.35115 -9.03291e-05 0.0721114 -0.0331907
235 1 0.92482 0.100052 0.0249457 0.0143466 -3.35747 0.0845786 -0.0099954 0.0316149
1754 1 0.924919 0.0752162 0.050068 0.0130216 -3.35303 0.0558453 0.0233566 -0.0411068
1833 1 0.89956 0.100203 0.0496423 0.0487157 -3.34062 0.151104 -0.0375797 0.0854146
1761 1 0.999967 0.0999365 0.050352 0.0343074 -3.35711 -0.0405775 0.0177413 -0.0788352
84 1 0.999883 0.0751901 0.0252052 0.0290063 -3.34727 0.0163284 0.0162791 -0.0268034
160 1 0.950324 0.0749662 0.0250304 0.0388365 -3.34771 -0.152632 0.0798785 -0.012819
239 1 0.974963 0.100171 0.0254772 0.0413178 -3.35053 0.0332848 0.00931126 -0.119222
1758 1 0.974784 0.0743816 0.0501798 0.112211 -3.34419 0.0380873 0.202916 0.00945999
1837 1 0.950271 0.100036 0.0498336 0.0344935 -3.36312 -0.0571904 0.0446948 0.0523458
237 1 0.949816 0.10031 -0.000159708 0.0211523 -3.35411 0.0717633 -0.0769955 0.0516019
158 1 0.975003 0.0753561 0.000219858 0.0233455 -3.35015 -0.00345317 0.0129568 -0.122513
162 1 0.0250548 0.125196 -7.45371e-05 0.027715 -3.35731 0.0576846 -0.0470883 0.0556524
168 1 0.0504767 0.124944 0.0250644 0.0395125 -3.34423 -0.144911 -0.0376138 -0.0644054
243 1 0.024951 0.149715 0.0253 0.0395496 -3.35338 0.0366074 0.0815889 -0.122769
1762 1 0.0250148 0.124711 0.0499471 0.0184155 -3.34884 0.0118742 0.00545202 0.0375222
1845 1 0.0498321 0.149531 0.0503387 0.0408616 -3.35052 -0.0367884 0.157463 -0.0557228
245 1 0.0500517 0.149941 6.92722e-05 0.00953625 -3.34749 0.0185667 -0.0287359 0.00934977
172 1 0.0996769 0.124966 0.0251715 0.0225489 -3.34608 0.0409026 0.0339271 -0.0737259
247 1 0.0747623 0.150057 0.0252867 0.0240031 -3.33075 -0.00840095 -0.0713427 -0.0650515
1766 1 0.0749088 0.124934 0.0499522 0.0103967 -3.34183 0.0515784 -0.0893763 0.06411
1849 1 0.0998818 0.149838 0.0497754 0.0152172 -3.35058 0.0599482 0.0437613 0.0627737
176 1 0.150183 0.125149 0.0247434 0.0242893 -3.34732 -0.0465883 -0.0497279 0.0804801
251 1 0.12522 0.149849 0.0246548 0.0440099 -3.35873 -0.11374 0.0391273 0.0547233
1770 1 0.124671 0.125054 0.0499605 0.0292371 -3.34921 0.136818 -0.0426908 -0.0770521
1853 1 0.150081 0.149915 0.0499124 0.00535279 -3.33814 -0.0181571 0.0163908 0.00220602
253 1 0.150031 0.150198 -2.20496e-05 0.0114938 -3.35048 -0.0295302 0.0051793 -0.0285706
180 1 0.200188 0.124999 0.0247488 0.0289681 -3.34966 -0.0942857 -0.0227882 0.069659
255 1 0.17504 0.150035 0.0250327 0.00807786 -3.34033 0.00385001 -0.00406842 -0.0255512
1774 1 0.174505 0.125268 0.0500135 0.0526278 -3.34628 0.13316 -0.0973805 -0.025059
1857 1 0.199571 0.14982 0.050009 0.0264974 -3.34391 0.075522 0.0426407 0.0311388
174 1 0.175309 0.125527 -5.10998e-05 0.0422933 -3.35306 -0.0181245 -0.171139 0.0390254
184 1 0.249903 0.1256 0.0251739 0.0374683 -3.35868 -0.0125724 -0.12138 -0.0515279
259 1 0.224735 0.150142 0.0251492 0.0150299 -3.35158 0.0433336 0.0425672 -0.0249689
1778 1 0.224645 0.125076 0.049948 0.0196876 -3.34952 0.126943 -0.039524 -0.0177402
1861 1 0.250157 0.15022 0.049986 0.0190857 -3.35718 -0.0318944 0.0122443 -0.00698441
263 1 0.275464 0.150418 0.0248921 0.0270584 -3.3526 -0.083914 0.0242328 0.0218737
1782 1 0.275277 0.12547 0.0499144 0.016601 -3.35275 -0.0721299 -0.0455116 -0.0127803
178 1 0.224873 0.125024 -2.98731e-05 0.0140965 -3.35247 0.120096 0.00393896 0.0067549
261 1 0.249989 0.150397 0.000146572 0.0351032 -3.36085 0.026086 -0.086651 -0.0233345
188 1 0.300276 0.12541 0.0246475 0.0265307 -3.34057 -0.0134184 -0.055544 0.078997
1865 1 0.300207 0.150123 0.0499465 0.0158339 -3.35019 -0.0752132 0.0827145 -0.0227773
267 1 0.325046 0.150289 0.0248646 0.0166511 -3.34304 -0.0351037 -0.0246961 0.00292368
1786 1 0.325207 0.125136 0.0497892 0.0130113 -3.34664 -0.0625352 -0.0566395 0.0260818
186 1 0.325458 0.12491 0.000123054 0.0271567 -3.33829 -0.0722808 -0.0190719 -0.0586284
192 1 0.349952 0.125251 0.024873 0.0309966 -3.3403 0.0887578 -0.0966677 0.0178539
1869 1 0.34984 0.149907 0.0498958 0.0166361 -3.35164 0.0404054 0.0936926 0.02394
271 1 0.375361 0.150227 0.02518 0.054383 -3.33756 -0.115924 -0.077848 0.00978201
1790 1 0.374517 0.124991 0.0498518 0.0468472 -3.35304 0.12232 0.0327385 0.078513
190 1 0.375209 0.124746 0.000451309 0.0488773 -3.35941 0.0177627 -0.0507582 -0.112072
196 1 0.399863 0.125095 0.0253691 0.0355689 -3.352 0.0487676 -0.10407 -0.0761883
1873 1 0.400389 0.149929 0.0501681 0.0417315 -3.34379 -0.145366 -0.00771659 0.0569858
275 1 0.4247 0.14996 0.0253302 0.0233677 -3.33534 0.118147 -0.0432398 -0.0411217
1794 1 0.425276 0.124867 0.049995 0.0209752 -3.34969 0.0100169 -0.0225348 0.0454025
273 1 0.399964 0.149936 0.000256742 0.00888352 -3.34374 0.0236682 -0.0376697 -0.0786681
194 1 0.425282 0.124753 0.000314496 0.0229901 -3.35962 -0.108289 -0.0304143 -0.0473624
200 1 0.450474 0.12493 0.0249361 0.0532836 -3.35283 -0.100219 0.00950148 0.0868367
1877 1 0.45005 0.149763 0.0502322 0.00956291 -3.35836 0.021349 0.0536228 -0.041588
279 1 0.475166 0.149778 0.0250226 0.0220217 -3.34827 -0.098786 0.0439188 0.0285673
1798 1 0.475251 0.124717 0.0504876 0.0345604 -3.34541 -0.0959786 -0.0142434 -0.0711536
277 1 0.449455 0.149748 0.000107358 0.0494505 -3.34489 0.117015 0.0262961 0.023903
204 1 0.500151 0.124737 0.024971 0.0189652 -3.34722 -0.0646005 0.0275209 0.0179932
283 1 0.525099 0.149759 0.0248791 0.0218296 -3.34764 -0.0388113 0.0739657 0.0665873
1802 1 0.524978 0.125005 0.0501536 0.0100057 -3.35081 -0.0489155 -0.0239866 0.00414099
1881 1 0.499592 0.149684 0.05004 0.0361733 -3.34764 0.124476 0.0666062 0.00400212
208 1 0.549594 0.124517 0.0248759 0.0757833 -3.34563 0.148116 0.0982578 0.0154624
1885 1 0.549741 0.149945 0.0499051 0.0142276 -3.33412 -0.0478172 0.0472117 -0.0248877
287 1 0.574404 0.150053 0.0250617 0.0526724 -3.36021 0.143143 -0.0670033 -0.064983
1806 1 0.574842 0.125272 0.0501496 0.0277369 -3.34442 0.0555562 -0.0503516 -0.109961
212 1 0.600228 0.12494 0.0251542 0.0230726 -3.35111 -0.125075 0.0379412 -0.0261982
1889 1 0.599829 0.14982 0.0498262 0.0217625 -3.34821 -0.00100812 0.0232882 -0.00180745
206 1 0.575228 0.125043 5.12749e-06 0.0145903 -3.36088 -0.076262 0.0148794 0.067373
289 1 0.600296 0.149893 1.03465e-05 0.0211857 -3.35248 -0.0547743 0.0658749 0.0564325
291 1 0.624865 0.150173 0.0250952 0.0207831 -3.33946 -0.0295441 0.00178277 -0.0113343
1810 1 0.62504 0.124857 0.0498677 0.017207 -3.35142 0.00924637 0.0367158 0.0870694
216 1 0.649717 0.125316 0.0247025 0.0406322 -3.34609 0.0782695 -0.108517 0.0495769
1893 1 0.650179 0.149882 0.0497704 0.0329816 -3.35937 -0.0412634 0.0408998 0.0826786
214 1 0.675019 0.125117 7.44137e-07 0.0161004 -3.36194 -0.0571036 -0.0251124 -0.0511202
295 1 0.675032 0.150185 0.0248258 0.0118748 -3.34803 -0.00319409 -0.0712583 0.0175711
1814 1 0.674808 0.124789 0.0500973 0.0368998 -3.34775 -0.0163484 0.111321 -0.104696
220 1 0.699819 0.124966 0.0246523 0.0188974 -3.35241 0.0034662 0.0314122 0.0883319
1897 1 0.700062 0.15013 0.0497536 0.0127787 -3.35502 -0.0537036 -0.0324073 0.0221843
299 1 0.72479 0.150092 0.0247175 0.0193631 -3.35298 0.0841366 -0.0558907 0.0298057
1818 1 0.725145 0.125263 0.049723 0.0403422 -3.34766 -0.100011 -0.118401 -0.0188278
224 1 0.750404 0.124608 0.0247164 0.0921242 -3.35164 -0.140321 0.12513 0.0766668
303 1 0.774581 0.150088 0.0253048 0.0358766 -3.35843 0.0985387 -0.0229963 0.0223411
1822 1 0.775094 0.125194 0.0500391 0.0238389 -3.3518 -0.0609417 -0.0238566 0.00716966
1901 1 0.749379 0.149711 0.0501937 0.0687272 -3.35159 0.154588 0.117134 -0.070873
218 1 0.724858 0.125257 -0.00014033 0.0199175 -3.36254 0.0412853 -0.0227533 0.0215802
228 1 0.800017 0.124979 0.0251224 0.0075231 -3.35863 -0.0539006 -0.00538915 -0.013511
307 1 0.825139 0.150129 0.0252247 0.017506 -3.34298 -0.113479 0.00211124 -0.0352075
1826 1 0.825005 0.125052 0.049927 0.00758659 -3.34305 0.0109933 -0.0427568 0.0244679
1905 1 0.800029 0.150005 0.0503117 0.0207724 -3.35042 -0.0626935 0.0191671 -0.119695
226 1 0.824555 0.125253 -2.90846e-06 0.033665 -3.34822 0.0941547 -0.0905017 0.0307558
232 1 0.849888 0.125415 0.0252246 0.0405986 -3.34568 -0.028516 -0.138907 -0.17749
311 1 0.874753 0.150019 0.024651 0.0231135 -3.35056 0.0867033 0.0259212 0.0443978
1830 1 0.874545 0.124869 0.0497337 0.0475526 -3.34199 0.143833 0.157648 0.0963595
1909 1 0.85002 0.149998 0.0499273 0.00936199 -3.34314 0.0735402 0.0355038 0.0675052
309 1 0.849572 0.150082 1.21608e-05 0.0200997 -3.34986 0.0284351 0.0277855 -0.069613
230 1 0.875133 0.125473 -9.24924e-05 0.0293154 -3.35514 -0.0798013 -0.115763 0.0107744
236 1 0.899976 0.124924 0.0250167 0.0144889 -3.3492 0.0326416 0.0884433 -0.00927796
313 1 0.900401 0.149729 1.64015e-07 0.0329013 -3.34867 -0.0712576 0.111723 -0.0108292
315 1 0.925187 0.15003 0.0249433 0.0121197 -3.35342 -0.00493042 -0.0193235 0.0169335
1834 1 0.924887 0.125111 0.0502666 0.0332649 -3.35584 0.0517564 -0.036745 -0.150378
1913 1 0.899856 0.150112 0.0496298 0.0229428 -3.36121 -0.0192989 -0.0643385 0.0725366
234 1 0.92532 0.125114 4.86638e-05 0.0207626 -3.3412 -0.055438 -0.0159739 0.00199206
164 1 1.0002 0.124894 0.0254501 0.0617747 -3.34449 -0.0568349 0.0157619 -0.167241
1841 1 1.00017 0.150116 0.049737 0.0319693 -3.34698 0.0202332 0.0389881 0.113812
240 1 0.950115 0.125329 0.0247226 0.0208286 -3.35349 -0.0266318 -0.0669869 0.0959001
319 1 0.975232 0.150363 0.024822 0.0223294 -3.34465 -0.00494762 -0.0482894 -0.0401511
1838 1 0.975015 0.125727 0.0498741 0.062154 -3.34403 -0.00201681 -0.185272 0.0506687
1917 1 0.950239 0.150027 0.0498121 0.015262 -3.34645 -0.0882318 0.027968 0.0354713
238 1 0.975172 0.125253 0.000155504 0.019871 -3.35855 0.00470324 -0.064982 -0.031359
248 1 0.050013 0.174647 0.0252448 0.0223304 -3.34837 -0.011003 0.0373846 -0.0141457
323 1 0.0250379 0.199856 0.0248282 0.0148895 -3.34474 -0.0221139 0.0328517 0.00350112
1842 1 0.0251611 0.175519 0.0500077 0.0966363 -3.34998 -0.0492186 -0.228206 0.0284164
1925 1 0.0496911 0.199758 0.0499994 0.021292 -3.34335 0.0986576 0.0395033 0.0743225
242 1 0.0253573 0.17507 -3.26562e-05 0.0168011 -3.35687 -0.0894239 -0.0376362 0.0066613
252 1 0.0993427 0.174587 0.0248353 0.0744064 -3.34966 0.183211 0.12517 0.119309
327 1 0.0745922 0.199983 0.0251645 0.0191246 -3.35149 0.089009 -0.0121032 0.0467143
1846 1 0.075099 0.174732 0.0503213 0.027399 -3.35662 -0.0683281 0.0829316 -0.007478
1929 1 0.100036 0.200029 0.0500249 0.0266553 -3.36096 -0.0410461 -0.10425 -0.00871358
329 1 0.0997189 0.200055 0.000266902 0.0176221 -3.34626 0.00736663 0.0170763 0.0264045
246 1 0.0749041 0.174904 0.000153306 0.00938099 -3.34143 -0.0562316 0.0443507 -0.0770243
256 1 0.149994 0.174818 0.024953 0.0180441 -3.345 0.00334307 0.024585 0.0456291
331 1 0.125218 0.199578 0.0253849 0.0543937 -3.35605 -0.106866 0.0455288 0.00323368
1850 1 0.125197 0.174467 0.0499729 0.0359008 -3.35989 -0.10579 0.130148 -0.0299303
1933 1 0.150171 0.200231 0.0503878 0.0472197 -3.35064 -0.0379341 -0.113901 -0.0864872
333 1 0.149738 0.200023 0.000510349 0.0295958 -3.34335 -0.0100087 0.0139068 -0.13294
260 1 0.199672 0.175121 0.0251563 0.0243232 -3.34515 0.116861 0.00837434 -0.0269527
335 1 0.174802 0.199702 0.0247124 0.0617327 -3.35146 0.0475125 0.148349 0.189112
1854 1 0.175174 0.175016 0.0500236 0.013562 -3.3518 -0.0359892 0.0609688 0.0447117
1937 1 0.200321 0.200302 0.0502701 0.050657 -3.35218 -0.118997 -0.111565 -0.101704
337 1 0.20008 0.2 -9.32533e-05 0.0138802 -3.34614 0.0318838 0.00578102 0.0120529
264 1 0.250135 0.175386 0.0251449 0.0247958 -3.35917 0.0177297 -0.0912024 -0.063127
339 1 0.225182 0.20006 0.0248806 0.0208274 -3.34787 -0.0798355 -0.0210818 0.060005
1858 1 0.224614 0.174846 0.0499825 0.0399272 -3.35815 0.0374045 0.0110611 0.0377884
1941 1 0.249988 0.199707 0.0501527 0.0529958 -3.34971 0.00383838 0.143124 -0.0428726
258 1 0.224853 0.174976 2.74768e-06 0.0159265 -3.352 0.0334199 -0.0117336 0.0551437