ITEM: TIMESTEP
12250
ITEM: NUMBER OF ATOMS
32000
ITEM: BOX BOUNDS pp pp pp
4.9579873837086144e+00 7.6042012616286229e+01
-2.1190394378023711e+00 8.3119039437796630e+01
-2.1142013855784043e+00 8.3114201385574262e+01
ITEM: ATOMS id type xs ys zs c_csym c_peratom fx fy fz
8 1 0.049824 0.0247243 0.0253417 0.0187824 -3.30322 0.00184627 0.0462814 -0.0448503
1602 1 0.0247874 0.0248098 0.0503938 0.0131078 -3.29021 0.0254413 0.0247638 0.00920537
1685 1 0.0497803 0.0496215 0.050523 0.0179247 -3.2938 0.0385005 0.038073 0.00578157
4 1 0.000222224 0.0249371 0.0254753 0.0629645 -3.29975 -0.119298 0.00658943 -0.0674169
3 1 0.0249213 0.000145081 0.0247892 0.0448549 -3.29142 0.0421695 -0.129309 0.103848
12 1 0.1001 0.024748 0.0253803 0.0214448 -3.31661 -0.101793 0.0474134 0.0315023
6 1 0.0746798 0.0251065 0.00019961 0.0239112 -3.30157 0.0397472 -0.0294 0.00419678
7 1 0.0749499 -0.00035185 0.0252636 0.0128232 -3.28388 -0.0395516 0.094072 -0.0160512
1606 1 0.0746712 0.024804 0.0504771 0.0204268 -3.30623 0.1168 0.0204425 -0.069628
1689 1 0.0998943 0.0501187 0.0501966 0.0291919 -3.30858 0.0337847 -0.157629 -0.00436785
89 1 0.100071 0.0495598 0.000279001 0.0190564 -3.29052 -0.0354747 0.0475728 0.040167
16 1 0.150322 0.0245941 0.025234 0.0238576 -3.29126 -0.130993 0.01219 -0.0267475
15 1 0.174943 -0.000101926 0.024888 0.0125297 -3.30365 0.0402511 -0.0334965 0.019709
11 1 0.124931 -8.74332e-05 0.0250117 0.012813 -3.30687 0.0125356 -0.0077151 0.0298108
91 1 0.125252 0.049617 0.025093 0.0171938 -3.30403 -0.0041746 0.0324746 0.051169
1614 1 0.174777 0.0245035 0.0500691 0.0224157 -3.28897 0.0618133 0.0294386 0.00862989
14 1 0.175334 0.0250503 8.61554e-05 0.0130414 -3.29913 0.0425208 -0.0682781 -0.0633083
93 1 0.150383 0.0495847 0.00028633 0.0258944 -3.30138 -0.0588982 0.105894 -0.0861683
20 1 0.199937 0.0248515 0.0251299 0.00887971 -3.29645 0.000167651 -0.00682791 -0.0236031
19 1 0.225106 0.000169339 0.0250933 0.0164657 -3.29639 -0.0369999 -0.0893891 -0.0730915
1618 1 0.224691 0.0249595 0.0498763 0.0142557 -3.30391 0.0468459 0.0126167 0.0892312
99 1 0.225185 0.0498891 0.0250697 0.0135043 -3.31178 -0.0486492 0.0355542 0.00450777
18 1 0.225061 0.024902 0.000282694 0.0184774 -3.28957 -0.0627358 0.0608757 -0.0346663
97 1 0.200244 0.0500251 -1.40269e-05 0.00852857 -3.29505 0.0613292 -0.00530289 0.0952222
24 1 0.250193 0.0248336 0.0251621 0.0162764 -3.29134 -0.0119794 0.0470131 -0.00837604
1622 1 0.275011 0.0251186 0.0498438 0.00720411 -3.30882 0.0367516 -0.0248463 -0.0274893
103 1 0.274914 0.0500538 0.0251203 0.0205655 -3.29864 0.0262869 -0.0662994 0.0017409
21 1 0.249799 0.000347667 -1.84266e-05 0.0648775 -3.30443 0.102007 -0.157008 -0.0180836
28 1 0.300639 0.0253506 0.0248275 0.0500977 -3.30732 -0.12059 -0.066353 0.104816
26 1 0.325223 0.0247993 -4.52272e-05 0.00802702 -3.29626 0.00444483 0.100738 -0.0521081
32 1 0.350112 0.0248618 0.0247551 0.0074849 -3.30574 0.0420492 0.00676521 0.0126878
25 1 0.300266 5.65988e-05 -0.000125956 0.0147865 -3.28789 -0.0697258 -0.0318534 0.0583241
27 1 0.32483 5.45018e-05 0.0249872 0.0218602 -3.29595 0.0825242 -0.0289984 -0.0143831
107 1 0.325413 0.0502034 0.0248862 0.0202425 -3.29507 0.0254072 0.0103851 0.0210716
1705 1 0.300252 0.0501307 0.0498679 0.0123715 -3.30033 0.0330923 -0.0832338 -0.017393
1629 1 0.350017 -0.000312866 0.0500849 0.0396947 -3.30986 -0.0083632 0.0703007 -0.00350645
36 1 0.399953 0.0250392 0.0248812 0.0185621 -3.3108 0.123338 -0.0138331 -0.0550834
111 1 0.375368 0.0498779 0.0247573 0.0139633 -3.30101 -0.0318546 0.058001 -0.0110922
115 1 0.425246 0.0504635 0.0251031 0.0526317 -3.29395 -0.0114937 -0.0767826 -0.0606187
40 1 0.449245 0.0249761 0.0249502 0.0502034 -3.29707 0.0867728 -0.00398133 -0.0559815
35 1 0.424914 -6.52578e-05 0.0249469 0.00907969 -3.29968 -0.0271053 -0.0345268 0.0116703
1634 1 0.424972 0.0249593 0.0500963 0.0103098 -3.29636 -0.0126509 0.00513466 -0.0126755
34 1 0.425009 0.0249605 -0.00057359 0.041124 -3.28927 -0.0898484 -0.0791938 0.0889489
44 1 0.499724 0.0247341 0.025021 0.022357 -3.29081 -0.0532481 0.0980193 0.0746799
39 1 0.474819 -4.32848e-05 0.0253164 0.0143726 -3.31757 -0.030034 -0.0147071 -0.0769212
1642 1 0.52473 0.0248228 0.0501091 0.0130791 -3.30247 0.00237478 0.0496612 0.0279664
123 1 0.52476 0.0499193 0.0254097 0.0468923 -3.2997 0.0655045 -0.0513439 -0.130593
43 1 0.52439 7.59493e-05 0.0255207 0.0457411 -3.31009 0.105641 -0.0620835 -0.0942505
1721 1 0.499662 0.0496956 0.049851 0.023804 -3.29802 0.0528792 0.0228243 0.0846177
1641 1 0.499744 3.69593e-05 0.0506107 0.0242059 -3.30298 -0.0501869 0.0224076 -0.0300302
38 1 0.474841 0.0250093 0.000191918 0.0193656 -3.29721 -0.0870857 -0.0450721 0.00604936
42 1 0.52449 0.0248001 0.00023839 0.0309173 -3.28745 0.0626994 0.076859 -0.0282596
48 1 0.55012 0.0249743 0.0250157 0.0262948 -3.30721 -0.0871664 0.0207015 -0.0469582
127 1 0.574853 0.0499884 0.0251249 0.0182233 -3.31501 0.0164065 -0.00945375 -0.0690838
47 1 0.574834 0.000128131 0.0249869 0.0121321 -3.29708 -0.0199796 -0.0769088 0.0237627
1645 1 0.549943 0.000211039 0.0502741 0.0188089 -3.30138 -0.0740661 -0.0740285 -0.0475748
52 1 0.600152 0.0249288 0.025093 0.0208597 -3.30558 -0.0200294 0.00684234 -0.0852384
131 1 0.624903 0.0501835 0.0247717 0.0125608 -3.29424 0.0367972 -0.0350537 0.0448857
51 1 0.625178 -0.000385862 0.024936 0.0345259 -3.3127 -0.0793261 0.0526082 0.0055791
49 1 0.599556 -0.000378802 0.000284415 0.0592154 -3.30245 0.121803 -0.00561896 -0.090203
56 1 0.649597 0.0251349 0.0248165 0.0395044 -3.3149 0.0447688 -0.0735519 -0.0232662
60 1 0.700031 0.0247691 0.0247949 0.0245672 -3.28685 -0.00183718 0.121642 -0.000585819
135 1 0.674948 0.0500301 0.0250386 0.011717 -3.29478 0.00416612 -0.0185937 -0.0779973
1654 1 0.675204 0.0249916 0.0496033 0.0441366 -3.30021 -0.0592333 0.0627566 0.0559428
55 1 0.675485 0.000139178 0.0250308 0.0336343 -3.31047 -0.136777 -0.0334773 -0.0171945
1657 1 0.699927 0.000251383 0.0503431 0.0487641 -3.29665 0.0333971 -0.0279077 -0.0259258
1653 1 0.650086 0.000136261 0.0498972 0.0118937 -3.29451 -0.0123913 0.0135159 -0.0382508
54 1 0.675049 0.0250118 -0.000173867 0.0103258 -3.29949 0.0379785 -0.0198221 0.0412212
64 1 0.749932 0.0252142 0.0249831 0.0135234 -3.30874 -0.00459902 -0.0532963 0.0314847
1658 1 0.724896 0.0252581 0.0499507 0.0145158 -3.30824 -0.0562089 -0.030994 0.0482068
59 1 0.724699 6.31136e-05 0.0251276 0.0249222 -3.30184 0.0585777 -0.0438149 -0.0070342
58 1 0.724963 0.0250244 -6.86759e-05 0.0134185 -3.3107 0.0333419 0.0312804 -0.0700358
61 1 0.749533 -0.000162809 -4.24976e-05 0.0444287 -3.30145 0.089141 0.116419 -0.0334777
68 1 0.79984 0.0252926 0.0244219 0.0602518 -3.30197 -0.0238185 -0.0231612 0.136001
143 1 0.774981 0.0503264 0.0250249 0.0327963 -3.29826 0.023679 -0.0273419 0.0211893
62 1 0.774471 0.0252204 2.07998e-05 0.0360747 -3.29895 -0.0367362 -0.0626158 -0.0527324
63 1 0.774819 2.23181e-06 0.0248237 0.018122 -3.31468 0.10731 0.0557132 -0.0322854
1665 1 0.80008 0.000418534 0.049739 0.0378178 -3.2993 -0.0530427 -0.0983218 0.0527933
72 1 0.850212 0.0246288 0.02485 0.0463127 -3.30738 -0.00505041 0.0914897 0.0605342
71 1 0.875413 -6.94309e-05 0.0249155 0.0320564 -3.29304 0.00378274 -0.0269197 -0.0886309
67 1 0.824612 0.000161366 0.0249197 0.0448295 -3.29355 0.0322164 0.025927 -0.0417442
1666 1 0.82475 0.0250853 0.0497971 0.0226903 -3.296 0.0757833 -0.0327025 -0.0289356
1749 1 0.849552 0.0502701 0.0499098 0.0410168 -3.30693 0.133934 -0.113802 0.0483917
70 1 0.874896 0.0251078 -0.000218947 0.0199753 -3.3003 0.0863956 -0.0875674 0.0237485
76 1 0.899726 0.0250508 0.0248988 0.0201913 -3.30074 0.0444279 0.0104632 -0.00601371
1753 1 0.899749 0.0502591 0.0500714 0.0280219 -3.29208 0.020108 -0.0810006 -0.0743529
74 1 0.925062 0.0251474 0.000192421 0.0117941 -3.29166 0.00837632 -0.0178943 -0.0628862
80 1 0.95 0.0251963 0.0249155 0.0186363 -3.29664 0.0231335 -0.0701401 0.0402199
1678 1 0.9746 0.0247335 0.0500022 0.035632 -3.30466 0.0708042 -0.0076935 0.0284044
159 1 0.974991 0.0498269 0.0244632 0.0710651 -3.29681 0.126738 0.0437356 0.124446
78 1 0.975464 0.0250912 4.48746e-05 0.0379605 -3.3091 -0.0247728 -0.0163338 0.0357094
79 1 0.974682 -0.000368466 0.0250062 0.0474781 -3.29936 0.108637 0.161379 0.0728149
81 1 1.00008 0.0501265 -0.000492834 0.0765338 -3.29141 0.0575509 0.071789 0.151849
83 1 0.025145 0.0499341 0.0254921 0.0223322 -3.31174 -0.0586911 0.00238092 -0.117613
88 1 0.0499258 0.0748842 0.0252995 0.0153933 -3.2997 0.0338812 0.0299542 -0.035573
84 1 8.46549e-05 0.0748445 0.0250601 0.0225912 -3.29282 0.0462424 -0.090992 0.00691986
161 1 -4.39403e-05 0.0996926 -9.99176e-05 0.0299017 -3.28907 0.0079888 0.0940864 -0.0632149
87 1 0.0745872 0.0497788 0.0253924 0.0253387 -3.30337 0.0625338 -0.0664806 0.00890513
92 1 0.0999196 0.0744658 0.0254419 0.0277131 -3.30232 -0.00547677 0.0470724 -0.0582433
86 1 0.0754336 0.0744228 0.000264007 0.0505725 -3.30685 -0.0101475 0.165627 0.00620815
169 1 0.0999714 0.0999721 7.90638e-05 0.0370132 -3.30557 0.0139064 -0.0860314 0.0952383
95 1 0.174997 0.0494679 0.0252196 0.0213164 -3.29071 0.0164313 0.127238 -0.0430686
96 1 0.150411 0.0748042 0.025363 0.0253362 -3.3157 -0.00912286 -0.0319217 -0.0321023
1694 1 0.175332 0.0746866 0.0503622 0.0262497 -3.30338 -0.117154 0.0645926 -0.00614537
175 1 0.175085 0.100006 0.0249703 0.0366249 -3.29539 0.00866239 -0.0470012 0.12422
171 1 0.124918 0.0993992 0.025275 0.0293406 -3.29134 0.0295632 0.0143026 -0.0573407
94 1 0.175104 0.0748085 -7.47562e-05 0.0302827 -3.30359 -0.0364419 -0.00849626 0.0379679
100 1 0.199925 0.0748119 0.0252135 0.0119758 -3.30758 -0.0437642 -0.0014932 -0.124588
1698 1 0.22434 0.0746757 0.0498157 0.0983019 -3.29695 0.160903 0.0658507 0.0564266
179 1 0.224804 0.100288 0.0252359 0.0596275 -3.31056 0.00312077 -0.0819632 -0.108988
98 1 0.225238 0.0749238 -7.81519e-05 0.0183061 -3.30977 0.0384785 0.0233229 0.0856486
177 1 0.199964 0.0996174 0.000292857 0.0487178 -3.3017 0.064881 0.088753 -0.11586
104 1 0.250451 0.0751498 0.0253972 0.0780422 -3.31152 -0.145965 -0.0210528 -0.0740726
1701 1 0.249848 0.0499612 0.0501011 0.0112778 -3.30422 0.0270328 0.0226461 0.0100224
101 1 0.250075 0.0499404 0.000225954 0.0113557 -3.3006 -0.0241524 -0.0164922 -0.0812034
183 1 0.275366 0.0999334 0.0246518 0.0306848 -3.29104 0.00223762 0.0560862 0.000840494
1702 1 0.275449 0.0748356 0.0502769 0.0533553 -3.29271 -0.106614 0.0176139 0.00188038
102 1 0.274849 0.0748839 -3.13021e-05 0.0242155 -3.29298 0.0500627 -0.0350564 -0.0110329
181 1 0.250456 0.0996931 -0.000315088 0.036391 -3.2993 -0.113326 0.0829942 0.0985523
108 1 0.299749 0.0748193 0.0249906 0.0434617 -3.30365 0.106257 0.0294022 -0.0440384
112 1 0.350382 0.0753002 0.02495 0.0290143 -3.29057 0.0456957 -0.103451 0.0460424
187 1 0.325012 0.0995914 0.0247634 0.0378443 -3.30694 -0.0624515 0.0923847 0.0107921
185 1 0.299967 0.0998751 -0.000658444 0.0577979 -3.29444 0.0496057 -0.092933 0.149347
1706 1 0.325293 0.0748327 0.0500732 0.0168367 -3.31178 -0.00379503 0.0488297 -0.0459372
116 1 0.400106 0.0751813 0.0250925 0.0114598 -3.29573 -0.0210914 8.75241e-05 0.00885488
120 1 0.450239 0.0753283 0.0249874 0.0446474 -3.30641 -0.0490831 0.00119558 0.0569471
1714 1 0.424904 0.0751031 0.0502867 0.0199265 -3.29979 0.045912 0.00927543 -0.0956663
121 1 0.499921 0.0497111 8.75425e-05 0.0288764 -3.30095 0.00378906 0.0568181 0.00452294
119 1 0.474465 0.0499772 0.0249374 0.0254268 -3.30249 0.0212696 -0.0583879 -0.0247908
124 1 0.499773 0.0746364 0.0250823 0.0227664 -3.30025 0.0225025 0.0835522 -0.00639504
199 1 0.475228 0.100073 0.025267 0.0357685 -3.29608 0.000857669 -0.0449204 -0.0433484
128 1 0.549867 0.0748728 0.0244387 0.0612618 -3.30895 -0.0537764 0.0506775 0.101076
1726 1 0.574633 0.0748901 0.0500029 0.0181478 -3.30935 0.0245413 0.0124763 -0.0756012
207 1 0.574688 0.100018 0.0250286 0.0241261 -3.30281 -0.0457493 -0.0254713 -0.0674569
125 1 0.549244 0.0497469 -0.000424973 0.066821 -3.31555 0.0188759 -0.0205539 0.132031
126 1 0.574872 0.0743711 -0.000157364 0.0748981 -3.29911 -0.0699977 0.152848 0.0359412
132 1 0.600102 0.0751496 0.0248109 0.010928 -3.31011 -0.0596977 0.000775071 0.0165936
211 1 0.625086 0.10043 0.0246038 0.0520574 -3.29011 -0.000757302 -0.138031 0.074619
130 1 0.625205 0.0752591 -0.000137126 0.0234068 -3.30635 0.00906739 -0.0924559 0.010696
1729 1 0.600252 0.0501916 0.0498994 0.0365381 -3.30306 -0.126279 -0.0190713 0.00771788
1730 1 0.624752 0.0753647 0.0499871 0.0362679 -3.29715 0.0266789 -0.0636749 -0.00474633
137 1 0.699707 0.0499858 -0.000157974 0.00571273 -3.29875 -0.0356367 -0.0108095 0.00394501
136 1 0.649796 0.0750647 0.0250444 0.0132401 -3.3021 0.00276835 0.0415635 -0.0442652
140 1 0.69973 0.0752987 0.0249619 0.0177228 -3.29091 0.00930755 -0.0934396 -0.0874621
1813 1 0.649529 0.100278 0.0501819 0.0386793 -3.30307 0.034921 0.00497204 -0.0387766
1737 1 0.699609 0.05038 0.0496908 0.0485562 -3.3037 0.0985625 -0.0765756 0.114422
139 1 0.72451 0.0498406 0.0247085 0.0348837 -3.30223 0.0192069 0.0814821 0.0898047
144 1 0.749705 0.0749463 0.0243699 0.0378171 -3.29788 -0.0301957 0.0117685 0.11254
138 1 0.724633 0.0748528 -0.000213089 0.0197288 -3.29428 -0.0726368 0.0832774 0.00590446
221 1 0.749579 0.100218 4.7061e-05 0.0165784 -3.30247 0.00662561 -0.025985 -0.0601048
148 1 0.800152 0.075461 0.0249794 0.0621598 -3.30286 -0.0203642 -0.136762 -0.108569
1745 1 0.800073 0.0497016 0.0501398 0.0552901 -3.29283 0.0427394 0.15147 -0.0546616
142 1 0.774827 0.075222 -0.000333039 0.0176793 -3.30294 0.0436869 0.0355574 0.0238735
225 1 0.79996 0.100121 -0.000365698 0.0169509 -3.30909 -0.0244292 -0.0469653 0.0231507
147 1 0.825242 0.0501768 0.0250144 0.0327279 -3.30806 -0.112089 -0.0865724 -0.0506396
151 1 0.874902 0.0500107 0.0247247 0.0195225 -3.31696 0.0303381 0.00684207 0.0806894
152 1 0.849885 0.0748423 0.0250004 0.0169121 -3.30642 0.0514324 0.0913505 0.00182357
227 1 0.824923 0.100044 0.024724 0.0324814 -3.29256 0.0398573 0.0219075 0.0629765
1746 1 0.824802 0.0750206 0.0500891 0.0208959 -3.29625 -0.0615144 -0.00134173 -0.00466467
1750 1 0.875294 0.0747372 0.0500619 0.0444211 -3.2926 -0.125575 0.0853317 -0.0802324
155 1 0.92484 0.0500446 0.0251698 0.0227291 -3.30107 -0.015038 -0.00809072 -0.0136535
156 1 0.900321 0.0751796 0.0249352 0.0229763 -3.29708 0.0114431 -0.0903729 0.0665575
1833 1 0.900341 0.0999886 0.0494764 0.0683275 -3.29369 -0.0490835 0.00496047 0.184443
235 1 0.925266 0.100255 0.0250688 0.0191079 -3.29684 0.0608631 -0.00873301 -0.0613199
160 1 0.949977 0.0749063 0.0250754 0.0181999 -3.30604 0.0139613 0.0670299 -0.0883117
1758 1 0.975051 0.0752192 0.0495997 0.0383488 -3.30112 -0.0164569 -0.0462433 0.125621
165 1 0.0502317 0.0998182 -5.77032e-05 0.0357782 -3.30297 0.0524936 -0.0281623 0.125506
163 1 0.0246839 0.0997921 0.024763 0.0374706 -3.29874 0.0625449 0.0498062 0.0249419
1765 1 0.0495824 0.0999834 0.0496688 0.0592439 -3.29908 -0.029419 -0.0837956 0.132485
168 1 0.0498606 0.124764 0.0253793 0.0253054 -3.29488 -0.0143533 0.0486104 -0.101891
245 1 0.0497752 0.149782 0.0010128 0.0969543 -3.30193 -0.0458338 0.0466083 -0.186669
243 1 0.0243804 0.150066 0.0255854 0.0637786 -3.31385 0.0255412 0.0114397 -0.064007
1845 1 0.0500182 0.149889 0.0499834 0.0193046 -3.31508 0.0267234 0.0906179 0.0266426
1762 1 0.0249048 0.125105 0.0498704 0.0241633 -3.28852 -0.0423488 -0.0318896 0.0711841
167 1 0.0749895 0.0998489 0.0254104 0.0316064 -3.30637 0.039991 -0.0911566 -0.106396
172 1 0.100048 0.124519 0.0248861 0.0439659 -3.30771 0.0984423 0.124604 0.133747
247 1 0.075015 0.149932 0.0249369 0.0226054 -3.30481 0.0979 -0.00461891 0.0600516
176 1 0.149598 0.124557 0.0252816 0.0489556 -3.29433 0.106801 0.0660921 0.0111506
255 1 0.174929 0.149938 0.0250628 0.0135546 -3.30027 -0.0578087 -0.00310021 0.0804926
251 1 0.125415 0.149869 0.0253538 0.0326834 -3.30845 -0.0449621 -0.000274511 -0.103285
170 1 0.125455 0.125007 0.000275837 0.040436 -3.28603 -0.049241 -0.0336731 -0.0411448
253 1 0.150126 0.149783 -3.48375e-05 0.0120881 -3.30167 0.0450696 0.0484341 -0.00778895
180 1 0.199602 0.125203 0.0253473 0.0523238 -3.29127 0.176085 -0.0847965 0.061238
1778 1 0.225572 0.124957 0.0503828 0.0425033 -3.31733 -0.037393 0.0186814 -0.0881548
259 1 0.224606 0.149956 0.0251804 0.0352708 -3.30379 0.10385 -0.0456889 0.0235242
1857 1 0.20001 0.149841 0.0503108 0.0118411 -3.31131 -0.0207651 -0.0317297 -0.0274446
257 1 0.199866 0.149678 0.000198586 0.018715 -3.29872 0.0756241 0.0632785 -0.107927
178 1 0.225106 0.12475 -4.54296e-05 0.0142944 -3.31537 -0.0665222 -0.0447937 0.018337
184 1 0.250061 0.125057 0.0250663 0.0214789 -3.30539 0.010893 0.000109223 -0.0260898
1861 1 0.250666 0.1502 0.0503413 0.0602012 -3.29539 -0.129792 -0.0687374 -0.120525
1782 1 0.275291 0.125142 0.0499524 0.0154146 -3.3037 0.0156551 -0.0730089 -0.0300656
182 1 0.275216 0.12478 -3.35007e-05 0.0168086 -3.29362 -0.0279229 0.047016 0.0194894
188 1 0.300374 0.124785 0.024675 0.0248399 -3.29517 -0.0246234 -0.00025303 0.0576806
192 1 0.349758 0.125256 0.0245059 0.0315332 -3.30353 -0.0477869 -0.108879 0.0673753
186 1 0.324742 0.124771 -0.000567498 0.0331758 -3.28535 0.022586 0.0224607 0.0945282
269 1 0.349563 0.149809 -0.000261237 0.0233617 -3.29428 -0.0181493 0.0312229 -0.0538281
191 1 0.375192 0.100307 0.0246716 0.0350334 -3.30112 -0.020552 0.00531067 0.119964
196 1 0.399944 0.125222 0.025565 0.0756679 -3.30017 -0.0110086 0.0357311 -0.138507
273 1 0.40052 0.150121 0.000164093 0.0611451 -3.30183 -0.063035 -0.0252844 -0.0648453
271 1 0.374724 0.150243 0.0243737 0.0932278 -3.29545 0.0641226 -0.0413783 0.140332
1790 1 0.374444 0.124988 0.0498541 0.0317628 -3.29699 0.00284444 -0.000291739 -0.00273795
195 1 0.424599 0.1004 0.0250405 0.0497327 -3.2951 0.0491615 -0.126382 0.00243569
1797 1 0.449766 0.0999665 0.0497958 0.0277926 -3.308 0.077091 -0.0546436 0.0710842
200 1 0.449792 0.124788 0.0252499 0.0214982 -3.2871 0.0186706 -0.00727018 -0.0636386
1794 1 0.425078 0.124894 0.0502319 0.0283308 -3.28768 -0.048073 0.0291453 -0.0186485
203 1 0.524476 0.100071 0.0249951 0.0156279 -3.31415 0.0622009 -0.0736367 -0.0372018
204 1 0.499805 0.125022 0.0252129 0.0221004 -3.29238 0.0352958 0.0367414 -0.0763455
1798 1 0.474676 0.125067 0.0500858 0.0148647 -3.29414 -0.0201353 -0.0318036 0.011382
283 1 0.525169 0.150038 0.0246387 0.0348561 -3.30695 -0.0577756 0.0586485 0.00521616
1802 1 0.524818 0.12501 0.0498713 0.0110483 -3.28472 -0.0281101 -0.0748978 0.058364
208 1 0.549567 0.12532 0.0250025 0.0421625 -3.29168 0.0703523 -0.132256 -0.0645369
206 1 0.57527 0.124898 0.00031433 0.0530906 -3.29559 -0.0700144 0.0127646 -0.0565895
287 1 0.575027 0.149974 0.0252024 0.023854 -3.30783 -0.00900656 0.0227048 -0.0366828
212 1 0.599887 0.124899 0.0250158 0.0205357 -3.28742 -0.00582239 0.0592517 0.0305025
210 1 0.624457 0.125163 5.35963e-06 0.0285438 -3.30498 0.0420087 -0.0892256 -0.0899499
1810 1 0.624852 0.125478 0.0497423 0.0414169 -3.28563 0.0312181 -0.184984 0.107942
1817 1 0.699948 0.0998802 0.0500749 0.023406 -3.30176 0.00585772 0.146449 0.0247983
215 1 0.674716 0.100098 0.0253308 0.0224792 -3.30573 -0.00724818 0.0388963 -0.0745919
216 1 0.649561 0.125054 0.0249651 0.0136022 -3.29135 0.068329 0.0482396 -0.0206396
220 1 0.699547 0.125131 0.0251857 0.0244831 -3.29599 0.0551976 -0.102311 0.0583025
214 1 0.674892 0.125024 0.000204224 0.0270167 -3.29644 -0.0250573 -0.0146725 -0.07297
295 1 0.674623 0.149713 0.0249573 0.023227 -3.29619 -0.100625 0.0990861 0.0262202
297 1 0.69961 0.149925 8.2989e-05 0.0139706 -3.3024 0.0389646 0.0701241 -0.0710405
1814 1 0.674461 0.125404 0.0502207 0.0380762 -3.30577 0.0807802 -0.0937868 -0.0509263
219 1 0.724469 0.100021 0.0249342 0.0220786 -3.29685 0.0476531 0.051512 -0.0193015
224 1 0.749689 0.125001 0.0246044 0.0420073 -3.29561 0.0535894 -0.0574529 0.129557
1821 1 0.749865 0.0993161 0.0494543 0.0847145 -3.29813 0.0221842 0.179796 0.0651702
223 1 0.774667 0.100054 0.0244666 0.0205443 -3.2972 0.0476837 0.0234682 0.026859
228 1 0.799768 0.125152 0.0251999 0.0253809 -3.30589 -0.00941937 -0.020597 -0.0718638
303 1 0.774624 0.150118 0.0253897 0.045738 -3.29627 0.0848321 -0.021897 -0.0542967
1822 1 0.774569 0.124785 0.0499015 0.0235388 -3.3135 -0.09427 0.00655327 0.0126802
231 1 0.875324 0.0998061 0.0253127 0.0213725 -3.29164 -0.134344 0.0249149 -0.100878
232 1 0.850007 0.124949 0.0255509 0.0482752 -3.30674 0.0479268 -0.0497774 -0.148908
311 1 0.874989 0.149934 0.0248901 0.0214684 -3.30998 -0.026122 -0.00181589 0.0669931
307 1 0.825174 0.149744 0.0255305 0.0531472 -3.30039 -0.0757259 0.0775552 -0.219131
1826 1 0.825011 0.124661 0.0501975 0.0338057 -3.29541 -0.0494492 -0.030313 -0.0235881
236 1 0.899984 0.125067 0.0250235 0.0158206 -3.30732 0.039541 0.0155917 0.0375466
234 1 0.925415 0.124991 3.9054e-05 0.0178809 -3.30491 -0.0395774 -0.021494 0.0378255
315 1 0.925053 0.150088 0.0251274 0.0203174 -3.30397 0.0573113 -0.101864 0.0200848
164 1 0.999713 0.124975 0.0249756 0.0262916 -3.28384 0.126475 -0.0393608 -0.00270394
239 1 0.975603 0.0999152 0.0249998 0.0391219 -3.29636 -0.186567 -0.0338574 -0.0110582
240 1 0.950639 0.124909 0.0249736 0.0264057 -3.30812 -0.0982624 0.0346327 0.0843099
238 1 0.974947 0.124825 0.000109831 0.0148295 -3.29497 0.0136861 0.0352829 -0.10126
317 1 0.9503 0.150026 0.000129528 0.0197171 -3.315 0.0469302 -0.0212097 -0.0012943
248 1 0.0502085 0.175162 0.0255687 0.0414665 -3.31118 -0.0407206 -0.100962 -0.0176855
244 1 -0.000396804 0.175041 0.0251885 0.0466106 -3.28309 0.114996 0.00297349 -0.0122355
321 1 0.000335796 0.199845 0.000165936 0.0206909 -3.2976 -0.0704666 0.0986449 0.0144993
252 1 0.100483 0.174982 0.0248656 0.0229688 -3.30449 -0.0385107 -0.0282418 -0.0190832
246 1 0.0752213 0.174777 3.0962e-05 0.0228375 -3.29852 -0.0478724 -0.0525697 0.0716183
1929 1 0.100651 0.199853 0.0498075 0.0321271 -3.29374 -0.018037 0.104072 0.0502134
256 1 0.150435 0.17516 0.0249411 0.023348 -3.30778 -0.0597537 -0.0055186 0.0348476
254 1 0.175357 0.17477 8.04922e-05 0.0112511 -3.29371 -0.0776271 0.0201962 -0.062698
250 1 0.125538 0.174983 -0.000130885 0.0149413 -3.30018 0.0204292 -0.00895893 0.00611548
335 1 0.175446 0.200099 0.0253662 0.0236979 -3.29707 -0.0509016 0.00702716 -0.0598778
333 1 0.150684 0.200013 -0.000177365 0.0250829 -3.30869 0.0282816 -0.0236017 0.0231185
260 1 0.199826 0.175014 0.0252387 0.0149776 -3.29481 0.039017 -0.0270539 0.019348
337 1 0.200127 0.19978 -9.49703e-06 0.0100715 -3.30606 -0.0491964 0.08013 0.0487494
263 1 0.275356 0.149787 0.0252075 0.0212723 -3.30618 -0.00445545 0.0121499 -0.0538208
264 1 0.249731 0.174536 0.0253031 0.0497351 -3.29466 0.0624719 0.0317387 -0.054559
343 1 0.274437 0.199902 0.0248063 0.0467163 -3.29467 0.0226699 -0.015375 0.0251524
1862 1 0.275124 0.17518 0.0499867 0.0206835 -3.2891 0.0122215 -0.0320619 0.0378648
267 1 0.324695 0.149933 0.0248418 0.0116488 -3.29514 -0.0496779 0.020159 0.0245143
268 1 0.299807 0.175018 0.0251151 0.0110712 -3.29114 0.0297577 -0.0395835 -0.0432824
272 1 0.349597 0.174825 0.0252335 0.0343991 -3.2937 0.0108776 0.072981 -0.0774563
1866 1 0.324837 0.175024 0.0499242 0.0110589 -3.28939 -0.0203635 -0.00573378 0.0177289
265 1 0.299964 0.149985 -5.78562e-05 0.0114235 -3.30438 -0.0559808 -0.00986463 -0.0537052
1873 1 0.399648 0.149836 0.0498611 0.0203533 -3.311 -0.0486543 0.0340189 -0.0248309
276 1 0.399893 0.17506 0.0248735 0.0184639 -3.30757 -0.0330748 0.0106478 0.00712605
1870 1 0.374573 0.174957 0.0501718 0.0284156 -3.30744 0.174869 0.0192996 -0.0959107
353 1 0.399325 0.200124 -0.000173987 0.0535634 -3.3026 0.0738824 -0.0678832 0.0362341
275 1 0.425092 0.149949 0.0249909 0.0127661 -3.2882 -0.0211269 0.00157049 0.0375891
280 1 0.449904 0.174827 0.0247918 0.0157052 -3.29688 0.0160192 0.0215041 0.0914096
355 1 0.424724 0.199954 0.0246162 0.0346282 -3.30932 0.039703 0.0247807 0.088038
279 1 0.474462 0.149405 0.0247939 0.0508491 -3.30041 0.0795378 0.1286 0.0512342
1881 1 0.500045 0.149721 0.0499157 0.0316351 -3.30299 -0.0900824 0.0993123 -0.0643591
284 1 0.499622 0.174542 0.0247578 0.0243371 -3.30491 0.0551477 0.0147645 -0.0545366
1882 1 0.524569 0.174988 0.0497887 0.0155999 -3.3048 0.0187333 -0.0402799 0.023355
281 1 0.499728 0.149817 -0.000325215 0.020727 -3.29729 -0.00856783 -0.0145509 0.0985147
278 1 0.474691 0.174513 -0.000203101 0.0246075 -3.30606 -0.0401067 0.0734077 -0.0406553
282 1 0.525069 0.174625 -0.000235394 0.0352276 -3.30284 -0.0528883 0.0476064 0.145103
285 1 0.550646 0.150047 -0.000234186 0.0745733 -3.29928 -0.0798364 -0.0833128 0.065663
288 1 0.550064 0.17532 0.0250328 0.0419128 -3.30123 -0.0629222 -0.100917 0.0657444
286 1 0.574663 0.175194 0.00035194 0.0572552 -3.30177 0.138015 0.00899148 -0.126524
291 1 0.624681 0.150348 0.0250182 0.0255287 -3.30482 0.0708899 -0.0554175 -0.0444593
292 1 0.599967 0.174818 0.0250103 0.0250201 -3.29236 -0.0244744 0.0751308 0.00279976
290 1 0.624722 0.175185 6.0015e-05 0.0121728 -3.29486 0.0455655 -0.0588532 0.0123276
1889 1 0.600187 0.149757 0.0500093 0.0387963 -3.29824 -0.123726 0.0991597 0.0505543
296 1 0.650021 0.175217 0.0247419 0.0347121 -3.30952 -0.0753826 -0.0691819 0.094909
293 1 0.649389 0.149732 -0.000217561 0.0421299 -3.30348 0.0549005 0.0552348 0.042305
300 1 0.699565 0.174533 0.024724 0.0556938 -3.30375 0.00447399 0.0372172 0.0329045
294 1 0.674389 0.174844 -0.000227887 0.0397447 -3.3008 0.0880031 -0.0104697 -0.0378355
373 1 0.65014 0.200084 -5.21882e-05 0.0236614 -3.3022 0.070977 -0.00615975 0.0279698
1897 1 0.700012 0.150125 0.0498264 0.0240262 -3.30675 -0.0297153 -0.0304747 0.051961
299 1 0.724851 0.149561 0.0250648 0.0513957 -3.29247 0.011145 0.149409 -0.0547654
304 1 0.749765 0.174994 0.0249108 0.0227968 -3.29533 -0.0139132 -0.047458 0.0273505
298 1 0.724811 0.175172 7.26986e-06 0.0305474 -3.30083 0.0665437 -0.137306 0.00916489
1901 1 0.749454 0.149995 0.0500906 0.0241601 -3.30833 0.0799378 0.0403879 0.0527346
1981 1 0.749895 0.199918 0.0499215 0.0115299 -3.29381 0.00517101 0.0133836 -0.0893957
308 1 0.800074 0.17512 0.0250552 0.0156225 -3.3066 0.104224 -0.117608 -0.0561321
383 1 0.775324 0.199456 0.0247813 0.0666284 -3.29981 -0.0622172 0.150495 0.0580915
1905 1 0.799857 0.149766 0.0499464 0.0125456 -3.29922 -0.0307269 0.0451939 0.00610268
385 1 0.799984 0.200269 -6.77242e-05 0.0314222 -3.2954 0.0937821 -0.162358 0.0153669
312 1 0.849722 0.175186 0.0249741 0.0492816 -3.29744 0.0513242 -0.0771882 -0.0272873
391 1 0.875178 0.199902 0.02507 0.00666884 -3.28623 0.0376715 -0.0473249 0.0225982
1906 1 0.825359 0.17491 0.0499801 0.0223806 -3.30456 -0.0553592 0.0153476 0.0150254
310 1 0.875267 0.17449 0.000211081 0.034003 -3.29889 -0.0336084 0.102641 -0.07598
387 1 0.825096 0.200203 0.0250921 0.0165528 -3.29807 0.0114585 -0.0438812 -0.0461366
1989 1 0.850363 0.200055 0.0500475 0.0182228 -3.30578 -0.0474854 -0.0239212 0.0208412
306 1 0.825126 0.175006 -6.96333e-05 0.0183128 -3.3103 -0.0138657 0.0350634 -0.00146082
313 1 0.900293 0.149515 5.23869e-05 0.0289665 -3.29545 -0.0467424 0.0268054 0.0113955
316 1 0.900105 0.174799 0.0248579 0.0150447 -3.29296 0.0254509 0.0387189 0.129972
314 1 0.925169 0.174681 0.000221989 0.0193881 -3.29334 0.0057839 0.0471031 -0.0534256
393 1 0.899972 0.199652 0.000127631 0.0187415 -3.28914 -0.0541903 -0.00875821 -0.0789141
319 1 0.975699 0.149798 0.0254059 0.0632763 -3.28622 -0.0806993 0.0652277 -0.111418
320 1 0.950366 0.174591 0.0249501 0.0299643 -3.30548 0.00282518 0.0506957 0.062702
318 1 0.975446 0.175322 -1.88004e-05 0.0619779 -3.28798 -0.0791786 -0.128774 -0.0179203
1841 1 0.999828 0.149769 0.0508191 0.0867044 -3.28121 0.0700999 0.0914024 -0.0655754
323 1 0.0250927 0.199743 0.0250262 0.0325494 -3.29424 0.00587929 0.0627869 0.0248915
328 1 0.0502181 0.224818 0.0249115 0.0266157 -3.30034 0.0886665 0.0541931 0.0592217
322 1 0.0253107 0.224907 0.00041459 0.0257525 -3.30743 -0.0180343 -0.0268934 -0.107212
325 1 0.0506308 0.199694 0.000303526 0.0429744 -3.29635 -0.137793 0.00380206 -0.035729
327 1 0.0752401 0.199867 0.0254468 0.0371536 -3.29991 0.0826443 0.037604 -0.0640959
332 1 0.1003 0.225268 0.0252124 0.0292745 -3.31039 -0.0442883 -0.0384397 -0.0903552
407 1 0.0749053 0.250204 0.0249719 0.0283095 -3.29886 0.123304 -0.108389 -0.00250586
329 1 0.100143 0.199661 2.97348e-05 0.025898 -3.29399 0.0248243 0.0483621 0.0402339
409 1 0.100223 0.250053 1.24839e-05 0.00773574 -3.31304 0.018431 -0.0199529 0.0620346
331 1 0.125209 0.200212 0.0248035 0.0269333 -3.30218 0.0703546 -0.0585359 0.0123679
336 1 0.150257 0.225023 0.0250808 0.00611008 -3.29271 0.00126817 -0.0181912 0.0124827
411 1 0.125293 0.250012 0.0248876 0.0127132 -3.29677 -0.00432331 0.0237485 0.000953969
330 1 0.125536 0.224702 -6.24743e-05 0.0335708 -3.30493 -0.0339631 0.0755927 0.0655636
339 1 0.225042 0.19974 0.0253786 0.0158267 -3.30853 -0.0284021 0.0666756 -0.0416294
340 1 0.200152 0.22508 0.0251922 0.00850798 -3.2928 0.0879014 -0.050651 -0.00205428
419 1 0.225088 0.250196 0.025077 0.0144625 -3.29652 -0.014958 -0.0604222 -0.0917666
1938 1 0.225108 0.224851 0.0503389 0.0111816 -3.3044 0.012289 0.0198262 -0.0243982
344 1 0.249874 0.225119 0.024983 0.00778014 -3.3131 0.043993 0.0417731 0.00103685
423 1 0.275008 0.250552 0.0252071 0.053801 -3.3208 -0.00405474 -0.129311 -0.0379168
2021 1 0.249678 0.25043 0.0501843 0.0523699 -3.30567 0.0768806 -0.184866 0.0345394
347 1 0.32437 0.1998 0.0248216 0.0353483 -3.29849 0.145955 0.0460234 0.0177896
348 1 0.299406 0.224724 0.0248193 0.067507 -3.29951 0.0683916 0.107053 0.039655
352 1 0.349589 0.224825 0.0251215 0.0162797 -3.30852 0.0303898 0.0822945 -0.0671041
1949 1 0.349837 0.199923 0.0498432 0.0115138 -3.29453 -0.00612552 0.0119488 0.01626
351 1 0.374552 0.200099 0.0249555 0.00799547 -3.29521 0.0902039 -0.055688 0.043098
356 1 0.399672 0.224969 0.0248632 0.0125801 -3.30975 -0.00211532 0.0356733 0.0392562
1950 1 0.374589 0.225159 0.0500364 0.0197948 -3.30001 0.00913393 -0.0165705 -0.0487892
433 1 0.400252 0.249966 -0.000140947 0.0190987 -3.31257 0.0298292 0.00205151 0.00307467
2033 1 0.400048 0.249869 0.0499451 0.0159687 -3.29824 -0.0294102 0.0257907 -0.00488277
350 1 0.374751 0.225251 -0.000159903 0.0162843 -3.29697 0.0106662 0.00456995 0.0577451
360 1 0.450141 0.225221 0.0254118 0.0598082 -3.3035 0.0108042 -0.0674081 -0.203618
1954 1 0.425173 0.225078 0.0497656 0.0257654 -3.3045 -0.0382741 -0.0144116 0.0904913