ITEM: TIMESTEP
500
ITEM: NUMBER OF ATOMS
32000
ITEM: BOX BOUNDS pp pp pp
1.9880050916281947e-01 8.0801199490832033e+01
-7.4909078186927047e-02 8.1074909078181719e+01
-7.4981840907206276e-02 8.1074981840901742e+01
ITEM: ATOMS id type xs ys zs c_csym c_peratom fx fy fz
4 1 -2.018e-05 0.0251087 0.0248933 0.0158237 -3.36451 0.0803194 0.00192666 -0.0605946
8 1 0.0500943 0.0252666 0.0248065 0.0137152 -3.35296 -0.0269685 -0.109538 0.0159135
83 1 0.0254573 0.0501568 0.0247358 0.025449 -3.35574 -0.106114 -0.00205957 0.0476659
85 1 0.0501795 0.0495586 -5.77785e-05 0.0425059 -3.3538 -0.0188835 0.131147 -0.0827648
1602 1 0.0251222 0.0251875 0.0497331 0.0116523 -3.35735 0.00291945 0.00623143 0.00545134
1605 1 0.0500495 0.000435217 0.0499976 0.0255967 -3.35794 0.0338811 -0.0843214 -0.0025858
1681 1 0.000244518 0.0498803 0.049691 0.0186006 -3.35949 0.00214942 0.0745644 -0.0042872
1685 1 0.0504168 0.0501556 0.0498351 0.0269752 -3.35669 -0.0710323 -0.0259302 0.0359311
12 1 0.100293 0.0246428 0.0245823 0.0725768 -3.3583 -0.0435765 0.119337 0.102651
87 1 0.0751857 0.049768 0.0247367 0.025101 -3.36298 0.0365972 0.121735 0.0744478
1606 1 0.0753152 0.0251638 0.0497209 0.0187079 -3.36788 -0.0110512 -0.02252 0.0988997
1689 1 0.100253 0.0500432 0.0501001 0.0146022 -3.35834 -0.0913733 -0.042629 -0.0571042
13 1 0.149563 6.12418e-05 9.25556e-05 0.0415326 -3.36335 0.0629663 -0.041544 -0.0371993
16 1 0.149727 0.0249555 0.0248222 0.0212908 -3.35556 -0.0144983 0.0562981 0.0158574
91 1 0.124658 0.0502567 0.0251919 0.0372777 -3.3609 0.0867226 -0.0764948 -0.0846047
1610 1 0.125269 0.0251138 0.0500402 0.0216115 -3.36355 -0.0744488 -0.0464081 0.027385
1613 1 0.149869 2.07422e-05 0.0500744 0.00958599 -3.36108 0.041504 0.00281082 -0.0417462
1693 1 0.149857 0.0499167 0.0500644 0.0090151 -3.35673 0.0105824 -0.00610964 0.0342336
14 1 0.174722 0.0246968 -0.000240591 0.046238 -3.36433 0.014174 0.126628 0.00424222
15 1 0.174838 0.000496121 0.0250746 0.0468516 -3.3588 -0.00739295 -0.162062 0.00933579
20 1 0.19975 0.0249243 0.0250744 0.0100229 -3.36033 0.0653645 0.044828 -0.0309807
95 1 0.174522 0.0499321 0.0251394 0.0267382 -3.35728 0.0776996 -0.0214055 -0.0951146
1614 1 0.174926 0.0251361 0.0499115 0.0108979 -3.35193 -0.0205392 -0.021743 0.0605751
1617 1 0.200022 1.46242e-05 0.050196 0.0104673 -3.36219 -0.031554 -0.0168965 -0.0378219
1697 1 0.199797 0.0500278 0.0499486 0.0104946 -3.35425 -0.0258246 -0.00716144 0.0241948
19 1 0.225034 2.60481e-05 0.025092 0.00672129 -3.36508 -0.0225307 0.0354995 -0.0105876
24 1 0.250148 0.0254082 0.0249035 0.0251483 -3.35995 -0.0425341 -0.0546206 0.00531954
99 1 0.224905 0.0499449 0.0251121 0.0105812 -3.3611 0.000806245 0.0230007 -0.0558484
1618 1 0.224803 0.0250446 0.0501187 0.00908317 -3.36339 0.0464732 -0.00998138 -0.0328651
1621 1 0.249915 0.000143842 0.0499876 0.00568826 -3.35899 -0.0296679 0.00524106 0.0361022
1701 1 0.250038 0.0499654 0.0499605 0.00930618 -3.36035 -0.00950483 0.0610313 -0.0178354
22 1 0.274977 0.0250179 -0.000489964 0.040974 -3.36606 0.0254533 0.0172782 0.12266
23 1 0.274877 0.000167156 0.0249924 0.0130484 -3.35554 -0.0144688 0.0111371 0.00915341
28 1 0.299719 0.0251171 0.0252321 0.0180181 -3.36391 0.0159358 -0.0115495 -0.0963727
103 1 0.274812 0.050286 0.0248774 0.0151657 -3.36172 -0.0341881 -0.066557 -0.0499227
105 1 0.299798 0.0498536 -9.31466e-05 0.0201549 -3.35821 -0.0372523 0.0640222 -0.0122815
1622 1 0.274907 0.0249438 0.0499557 0.0126732 -3.35025 0.00484894 0.0668358 -0.0030561
1705 1 0.299804 0.0501815 0.0500726 0.0155875 -3.35142 0.0604314 -0.0493786 -0.0107101
26 1 0.324618 0.0252393 -0.000164564 0.044527 -3.35445 0.0168913 -0.180552 0.101423
27 1 0.324541 1.03333e-05 0.0251392 0.0144755 -3.36106 0.0776061 0.0250444 -0.0578792
29 1 0.349892 0.000171183 -2.31761e-05 0.0143111 -3.3658 0.0104511 -0.0145263 0.0493431
32 1 0.349662 0.0246085 0.0253232 0.0419725 -3.36225 0.0460033 0.108069 -0.0671938
107 1 0.32482 0.0500327 0.0246049 0.0420616 -3.35858 0.0359284 -0.0382614 0.139403
109 1 0.349937 0.0497197 0.000249027 0.0221872 -3.34571 0.0282129 0.0526655 0.00398474
1626 1 0.324767 0.0252043 0.0501469 0.0146883 -3.36187 0.0353899 0.0305347 0.0244263
1709 1 0.34992 0.0499456 0.0503505 0.015922 -3.36735 -0.0169772 -0.0144283 -0.0778496
33 1 0.399941 -8.974e-05 0.000212805 0.0158777 -3.36027 0.0322443 -0.0159053 0.038493
36 1 0.399989 0.0249799 0.0251176 0.00819888 -3.36321 0.0247534 -0.0543119 -0.0548439
111 1 0.374796 0.0498847 0.0249429 0.0118102 -3.36313 -0.0235329 0.00389383 0.106815
1630 1 0.374971 0.0247224 0.0502363 0.0164547 -3.36058 -0.0401817 0.0788368 -0.0312703
1633 1 0.399961 -0.000176853 0.0499417 0.0150042 -3.3542 0.0241899 0.0253151 0.0241863
1713 1 0.399825 0.0497347 0.0498469 0.0227666 -3.35696 0.00613403 0.0283748 0.0308465
34 1 0.425365 0.0248305 -0.000141286 0.0245193 -3.36146 -0.092907 0.0350843 0.0596905
40 1 0.44999 0.0253927 0.0249947 0.0367501 -3.36036 0.0506171 -0.106414 -0.000497648
115 1 0.425131 0.0498957 0.0248492 0.0198058 -3.36003 -0.0665637 0.0263462 0.0734264
117 1 0.45 0.0499977 0.000172662 0.0291664 -3.35674 0.0422855 0.0424374 -0.117548
1634 1 0.424938 0.0248339 0.0499852 0.00794562 -3.35715 0.00922411 0.0216351 -0.0178285
1637 1 0.449799 3.01685e-05 0.0497954 0.0247709 -3.35893 0.090832 -0.0298724 0.0540133
1717 1 0.449977 0.050119 0.0505436 0.0579759 -3.3538 -0.0486682 -0.0665528 -0.170478
38 1 0.474973 0.0249926 -0.000486012 0.0528827 -3.36077 0.0660611 0.0646772 0.181726
39 1 0.475209 0.000131144 0.0249954 0.0161545 -3.36292 -0.0880207 -0.0112038 -0.0376067
44 1 0.500265 0.0251876 0.0252423 0.0278756 -3.3567 -0.105126 -0.0457749 -0.0992064
119 1 0.475158 0.0500372 0.0250907 0.0131272 -3.35808 -0.0519354 -0.032556 -0.0388393
123 1 0.525162 0.0500183 0.0249477 0.0106435 -3.35494 0.0711437 0.0216451 0.0292498
1638 1 0.474919 0.0249412 0.0497595 0.0179954 -3.36147 0.0209491 0.00934675 0.0545947
1642 1 0.525177 0.0249529 0.0499261 0.00999741 -3.36087 0.00701998 0.00822461 0.0452898
1721 1 0.500244 0.0500691 0.049797 0.0195984 -3.35095 -0.0463811 -0.0616889 0.0595318
46 1 0.575039 0.0252135 0.000262255 0.0127904 -3.35634 0.00625759 -0.0499883 0.0151125
47 1 0.57521 0.000317911 0.0251933 0.0219297 -3.35772 -0.0581877 -0.045427 -0.0522088
48 1 0.550237 0.0249441 0.0252696 0.0130298 -3.36277 -0.0366188 0.0524414 -0.0428064
125 1 0.550256 0.0500754 0.000130403 0.0059424 -3.35796 -0.0398218 -0.023169 0.0270131
127 1 0.5751 0.0503666 0.0253495 0.0200288 -3.35775 0.000217214 -0.11373 -0.00380299
1645 1 0.550102 -0.000116586 0.0499741 0.0163402 -3.35629 -0.0867075 -0.00964482 0.0344947
1646 1 0.574912 0.0247724 0.0503313 0.0341509 -3.3561 0.0436832 0.0841526 -0.0335903
1725 1 0.550264 0.0503587 0.050342 0.0393534 -3.36455 -0.0811703 -0.134292 -0.0467589
50 1 0.625279 0.0252343 0.00040667 0.0318128 -3.35764 -0.0154943 -0.0907252 -0.0704562
52 1 0.600336 0.0253244 0.0252366 0.0294909 -3.3557 -0.101066 -0.0714803 -0.0213459
129 1 0.599971 0.0499072 0.000203208 0.0183193 -3.3589 0.0463415 0.0589633 -0.0674246
131 1 0.625026 0.0500358 0.0250727 0.00772609 -3.35951 0.0491865 0.0564372 0.0605065
1649 1 0.600146 -4.4722e-06 0.0498278 0.0214954 -3.3559 0.000896034 0.00990127 0.106739
1650 1 0.625049 0.025021 0.0499979 0.00625831 -3.35423 0.039442 0.0188174 0.0175988
1729 1 0.59989 0.0499599 0.0501709 0.0178146 -3.35646 0.0573633 0.0348423 -0.0205781
56 1 0.650085 0.025047 0.0253272 0.0223874 -3.36566 0.0348036 -0.0462532 -0.0327715
135 1 0.67484 0.0501248 0.0250596 0.0228241 -3.361 0.0610352 -0.0227804 -0.00160985
1654 1 0.675246 0.0249624 0.0502772 0.0246675 -3.36437 -0.0090306 -0.0846871 -0.0661347
1733 1 0.650253 0.0500392 0.0504527 0.0273586 -3.35729 -0.0974351 0.00937277 -0.0891918
58 1 0.724927 0.0243962 0.000198093 0.038987 -3.34828 0.0485675 0.0257625 -0.1021
60 1 0.699817 0.0246701 0.0247838 0.042594 -3.35595 -0.0141545 0.00403503 0.111507
137 1 0.700393 0.0495087 -0.000104697 0.0445536 -3.35639 -0.0907746 0.0984168 0.0482981
139 1 0.724963 0.0493785 0.024818 0.0443442 -3.35321 0.0191532 0.16588 0.0831097
1658 1 0.724823 0.0250677 0.0497588 0.0534029 -3.36457 0.0347874 -0.0812672 0.104158
1737 1 0.699757 0.0497 0.0501237 0.0209288 -3.35942 0.0457012 0.0224495 -0.0122253
62 1 0.775109 0.0249922 -1.57152e-05 0.00815021 -3.35141 0.00895637 -0.0407596 0.0466735
64 1 0.750277 0.0251075 0.0250995 0.0272442 -3.35736 -0.00568871 -0.0806594 0.0217249
143 1 0.775096 0.049866 0.0249904 0.00572606 -3.3636 -0.00782395 -0.00139856 0.0405523
1662 1 0.775237 0.024801 0.0502583 0.0189991 -3.36629 0.0255568 0.0431763 -0.0776274
1741 1 0.750105 0.0500642 0.0502755 0.0310105 -3.35968 -0.01193 -0.0598564 -0.074396
66 1 0.824753 0.0250573 -0.000168722 0.0264773 -3.35264 0.118953 0.00521125 0.0815215
68 1 0.800159 0.0247747 0.0247809 0.0143754 -3.36334 -0.0364596 0.048474 0.124178
147 1 0.825385 0.0499344 0.0250315 0.0195609 -3.36486 -0.0345798 -0.0038261 -0.00126345
1666 1 0.825135 0.0249607 0.0497868 0.0209035 -3.36561 -0.039894 0.0414104 0.0773079
1745 1 0.800225 0.0502384 0.0499907 0.0230838 -3.36452 0.0135345 -0.102432 -0.0348989
69 1 0.85011 0.000223074 -0.000356758 0.0264909 -3.35989 -0.0474027 -0.0692895 0.0761
71 1 0.875004 0.00025009 0.0247642 0.010071 -3.3507 0.0540272 0.0019682 -0.0194354
72 1 0.850122 0.0248234 0.0249379 0.0198097 -3.35617 -0.0371141 0.09926 -0.0267333
149 1 0.850109 0.0499547 -0.00039597 0.0273555 -3.35842 -0.0189079 0.0558357 0.102773
151 1 0.874711 0.0500017 0.0249369 0.0303262 -3.36371 0.0642089 0.0430054 0.00102289
1670 1 0.874966 0.0253275 0.0501254 0.0295009 -3.35448 0.0156214 -0.090787 -0.0383458
1749 1 0.850223 0.0501018 0.0503913 0.0278675 -3.35835 -0.0940466 -0.00682585 -0.0794127
74 1 0.925239 0.0251708 8.578e-05 0.00614728 -3.35481 -0.0503043 -0.00148732 0.00787271
76 1 0.899924 0.0253051 0.0248 0.0105935 -3.36405 0.0089609 -0.0292363 -0.00960163
155 1 0.925055 0.0502621 0.0248977 0.011066 -3.35115 -0.00994128 -0.0565087 0.0355718
1674 1 0.924905 0.0251643 0.0499484 0.00783115 -3.3508 0.00883223 0.0025034 -0.06024
1753 1 0.900211 0.0499399 0.0498557 0.0219483 -3.3629 -0.0347119 0.0945941 0.0237337
81 1 1.00052 0.0499634 -0.000327638 0.0458498 -3.36329 -0.132587 0.0324072 0.0799375
78 1 0.975169 0.0249305 -0.000312415 0.0162284 -3.35776 0.0148682 0.027396 0.0543652
80 1 0.950186 0.025048 0.0250617 0.0108456 -3.36004 -0.0094324 0.0143288 0.0282749
159 1 0.97492 0.0498631 0.0247385 0.0191492 -3.36174 0.0514688 0.0587715 0.0243569
1678 1 0.975207 0.0250779 0.0501407 0.0236615 -3.35634 -0.0923858 -0.00399115 -0.0471171
1757 1 0.949958 0.0499983 0.0499961 0.0185996 -3.36371 -0.0103303 0.00957117 -0.0170847
84 1 -7.23113e-05 0.0751786 0.0248894 0.0153698 -3.36748 0.0359265 -0.0813322 0.00697137
88 1 0.0501454 0.0752859 0.0249137 0.0226287 -3.35488 -0.00597116 -0.0932297 -0.00707796
163 1 0.0249656 0.0999321 0.0253668 0.0301864 -3.35873 0.018318 0.00484317 -0.132408
165 1 0.0501213 0.100085 -1.12599e-05 0.0137784 -3.36785 -0.0783588 0.0355544 -0.0309421
1682 1 0.0251834 0.0748338 0.0500251 0.0174458 -3.36387 -0.0647919 0.0210593 -0.0285473
1761 1 -0.000162247 0.100082 0.0500505 0.0194403 -3.35652 0.0776777 -0.0374975 0.011487
1765 1 0.0500636 0.100131 0.0499805 0.0134745 -3.35227 0.00880057 -0.00726617 0.0113298
92 1 0.100021 0.0750596 0.0252454 0.0140913 -3.35988 -0.106345 -0.0564806 -0.0214522
167 1 0.0749179 0.0998045 0.0250385 0.0156653 -3.35532 -0.0031493 0.0746731 0.0115566
1686 1 0.0746817 0.0750981 0.0503498 0.0520594 -3.35765 0.0855761 -0.0455943 -0.116273
1769 1 0.0998081 0.0997891 0.0501427 0.0161125 -3.35476 0.0266075 0.0874429 0.0188571
96 1 0.149838 0.0751553 0.0249945 0.0189527 -3.35711 -0.0536901 -0.0102586 -0.0156685
171 1 0.124547 0.0998873 0.0252785 0.0231993 -3.35235 0.100909 0.025044 -0.0442504
173 1 0.149746 0.0997991 0.0001033 0.0127379 -3.35926 0.0324516 0.0378576 -0.00525011
1690 1 0.125164 0.0750466 0.0502252 0.0218766 -3.34227 -0.0199502 0.00920336 -0.0527102
1773 1 0.149571 0.100319 0.0499887 0.0279218 -3.36029 0.0891799 -0.0354018 -0.0103537
94 1 0.175003 0.0750815 0.000122401 0.0137761 -3.35172 -0.0477432 -0.020428 0.00671372
100 1 0.199774 0.0749921 0.0249819 0.00649795 -3.36142 0.015207 0.00878661 -0.0112623
175 1 0.174728 0.100317 0.0249672 0.0224921 -3.3607 0.0218281 -0.0706875 0.0489152
177 1 0.199615 0.100053 4.60823e-05 0.0179911 -3.35218 0.0984071 0.00506574 0.0419094
1694 1 0.174377 0.0748313 0.0495298 0.0800847 -3.36211 0.102942 0.0663659 0.155376
1777 1 0.199859 0.0998101 0.0500316 0.0243961 -3.3493 -0.0299224 0.0541051 -0.0520243
104 1 0.249821 0.0754096 0.0249857 0.0237329 -3.36697 0.00356725 -0.0922674 0.0463918
179 1 0.224667 0.100335 0.0253054 0.03392 -3.36286 0.0379987 -0.105545 -0.0322906
181 1 0.249486 0.10008 0.000107316 0.0224959 -3.34882 0.0738822 0.042681 -0.00808083
1698 1 0.224704 0.0745305 0.0499199 0.074722 -3.35438 0.126009 0.129068 -0.027656
1781 1 0.250106 0.100107 0.0499115 0.0109078 -3.36126 -0.031869 -0.0372606 -0.0398557
108 1 0.299691 0.0745572 0.0248761 0.0436696 -3.3545 0.073933 0.115498 -0.0151784
183 1 0.274925 0.100134 0.0250744 0.0126164 -3.35036 -0.0264317 -0.06357 -0.011158
1702 1 0.275388 0.0750295 0.0498331 0.0535046 -3.35821 -0.168374 0.0425004 0.0301489
1785 1 0.299873 0.100094 0.0500127 0.0163966 -3.3523 0.0230923 -0.0728327 -0.0493352
106 1 0.325098 0.0750432 -0.000228908 0.0316876 -3.35028 -0.0716314 -0.060013 0.0406206
112 1 0.349723 0.0751274 0.0250284 0.0230242 -3.35834 0.0995129 -0.114335 0.0657974
187 1 0.324883 0.099529 0.0249318 0.0189399 -3.34924 -0.0469 0.0713778 0.0222629
1706 1 0.324801 0.0747376 0.0498791 0.0258715 -3.36592 -0.00239893 0.0307356 0.0686972
1789 1 0.349692 0.0998123 0.050023 0.0109841 -3.35906 0.0599599 -0.0247297 0.0647043
116 1 0.400138 0.0749227 0.0249825 0.0166058 -3.36622 -0.0470737 -0.000216065 0.0299239
191 1 0.375011 0.100037 0.0249747 0.00929393 -3.36303 0.0221556 -0.0355248 0.0156331
193 1 0.400047 0.100122 -9.13653e-05 0.00988095 -3.35931 0.0037062 -0.0105102 0.0980514
1710 1 0.374925 0.0748427 0.0504462 0.0257781 -3.3679 -0.0290787 0.0389481 -0.116432
1793 1 0.399782 0.0999625 0.0499899 0.0150907 -3.35705 0.0413816 -0.0516688 -0.0254455
120 1 0.449611 0.0750981 0.0249244 0.0560608 -3.35347 0.0645132 -0.0521787 0.0810877
195 1 0.424923 0.100029 0.0250023 0.00899651 -3.36398 0.00528027 -0.0102414 0.0471803
1714 1 0.424825 0.0747077 0.0505181 0.0388511 -3.36344 0.0323162 0.0513136 -0.149908
1797 1 0.450217 0.09955 0.0505348 0.0492335 -3.36344 -0.0829955 0.0739973 -0.0623429
122 1 0.525068 0.0748251 -0.000163628 0.0252844 -3.36012 0.0326486 0.0805294 0.0810432
124 1 0.500066 0.0750344 0.0252532 0.0187546 -3.35712 -0.0172156 0.0355348 -0.0825751
199 1 0.475001 0.0996299 0.0254778 0.0348297 -3.3653 0.0349907 0.035326 -0.125195
201 1 0.500326 0.0999799 -0.00014769 0.02569 -3.36559 -0.125267 -0.0213208 0.0915821
203 1 0.525123 0.0998469 0.0253276 0.0169275 -3.36312 -0.0091695 0.0179687 -0.0848936
1718 1 0.474779 0.07447 0.0502057 0.0563683 -3.35622 0.085552 0.137991 -0.0184542
1722 1 0.524981 0.0749241 0.0496984 0.0424101 -3.34926 0.0607289 -2.33888e-05 0.0799447
1801 1 0.500066 0.100171 0.0503903 0.0462131 -3.35505 -0.0141505 -0.0818449 -0.0684307
126 1 0.575203 0.0748781 0.000354681 0.0229531 -3.35567 0.0275641 0.0718875 -0.096287
128 1 0.550317 0.0751649 0.025245 0.0142134 -3.3612 -0.0728705 0.00367073 -0.0621558
205 1 0.55 0.0999315 -0.000165018 0.028313 -3.36143 0.0318323 0.0205021 0.0875183
207 1 0.57521 0.100194 0.0249736 0.0176507 -3.35896 -0.0565624 -0.0258045 0.0329487
1726 1 0.574996 0.0750922 0.0503621 0.0140286 -3.34873 0.0596988 0.0570191 -0.0517755
1805 1 0.550224 0.100063 0.0503333 0.017664 -3.35609 -0.0108662 -0.00413135 -0.0459747
130 1 0.624942 0.074741 -0.000191085 0.032791 -3.36225 0.037302 0.0852613 0.0486649
132 1 0.60017 0.0752389 0.0251101 0.0152274 -3.35966 0.00978644 -0.0337534 0.00893174
211 1 0.625095 0.100179 0.0250453 0.0105748 -3.36045 -0.0153 -0.0721564 -0.00906509
1730 1 0.624908 0.0748836 0.0502989 0.0158969 -3.3659 0.0425957 0.0422738 -0.0810252
1809 1 0.599803 0.10003 0.0500732 0.0169645 -3.36499 0.0699058 0.0505573 0.0438781
134 1 0.675142 0.0751812 5.46367e-05 0.0240339 -3.36199 0.0274783 -0.0782261 0.0198172
136 1 0.649938 0.0749534 0.0250936 0.0109203 -3.35894 -0.0117284 0.00143059 -0.00116555
215 1 0.675465 0.0998733 0.0251352 0.0264992 -3.35588 -0.0404246 -0.00275894 -0.0299114
1734 1 0.674757 0.074972 0.0502583 0.0287201 -3.35414 0.100743 0.0151899 -0.0242346
1813 1 0.650105 0.100009 0.0499173 0.00959385 -3.35686 -0.0169296 -0.00491381 0.0244859
140 1 0.700112 0.0747128 0.0251323 0.019895 -3.37218 0.03646 0.0529572 -0.0452227
219 1 0.725248 0.100443 0.0247196 0.0528112 -3.36529 -0.0214795 -0.157696 0.0955155
1738 1 0.724951 0.0745101 0.0501388 0.0373945 -3.36453 0.0476692 0.130731 -0.0824443
1817 1 0.700179 0.100018 0.0499861 0.0162332 -3.36136 0.0607729 -0.0408207 -0.00500704
142 1 0.774909 0.0747391 0.000168112 0.0148194 -3.36251 0.00910882 -0.0245193 -0.0373774
144 1 0.750027 0.0751268 0.0252137 0.0303085 -3.36225 -0.067567 -0.0862252 -0.0370596
221 1 0.750282 0.0996852 6.88847e-06 0.0175581 -3.36088 -0.0105851 0.0584834 0.0317616
223 1 0.775296 0.0998761 0.0250198 0.0158825 -3.35657 -0.0506953 0.0343967 -0.0558053
1742 1 0.775201 0.0750467 0.0496993 0.0269474 -3.3559 -0.0143765 -0.016302 0.0785044
1821 1 0.750241 0.100083 0.0500875 0.0137639 -3.36133 -0.0844908 -0.0562398 0.00848554
146 1 0.825288 0.0748887 7.68835e-06 0.0221023 -3.35986 -0.0465479 0.0139085 0.00724334
148 1 0.800221 0.0747823 0.0245191 0.0564159 -3.35871 0.00349174 0.00812775 0.124383
225 1 0.80007 0.0999188 3.50901e-05 0.0105098 -3.35456 -0.0172318 -0.0228442 0.0143734
227 1 0.82469 0.100009 0.0252546 0.0271551 -3.35773 0.0788384 -0.0466469 -0.0501856
1746 1 0.825072 0.0749356 0.0502702 0.0132603 -3.36371 -0.0100967 -0.00200756 -0.0310486
1825 1 0.799949 0.0998677 0.0500734 0.00977687 -3.34968 0.0132961 -0.050702 -0.0113002
150 1 0.875111 0.0750164 -9.18915e-05 0.00918025 -3.36163 -0.0497615 0.0142445 0.0331
152 1 0.850044 0.0750468 0.0251366 0.00999438 -3.36335 0.018081 -0.0120529 -0.0173035
229 1 0.849998 0.0997199 6.12026e-06 0.0121302 -3.3624 0.00787891 0.069928 0.0416349
231 1 0.875139 0.100144 0.0252883 0.0213695 -3.361 0.0156106 -0.0627185 -0.0955544
1750 1 0.87521 0.0752293 0.050156 0.0143207 -3.36089 0.00842919 -0.0279754 -0.0427065
1829 1 0.849871 0.0999976 0.0499663 0.0104273 -3.35517 0.00767525 0.00320312 0.0306478
154 1 0.924864 0.0753095 -0.000308579 0.0287177 -3.35139 0.0456113 -0.0156989 0.0503448
156 1 0.900085 0.0749098 0.0249459 0.0209437 -3.36265 -0.0364923 0.0885234 0.00806601
233 1 0.899922 0.100153 -0.000253754 0.0164334 -3.36884 -0.00779503 0.00786787 0.0437458
235 1 0.925074 0.100461 0.0247625 0.0192148 -3.35309 -0.0118561 -0.074615 -0.0408772
1754 1 0.925205 0.0754864 0.0497401 0.0364679 -3.35572 -0.033591 -0.127048 0.0713273
1833 1 0.900438 0.100252 0.0496752 0.029466 -3.35505 -0.12137 -0.0405991 0.0523599
160 1 0.949435 0.0751575 0.0248373 0.06379 -3.35642 0.183262 0.000551244 0.0112075
239 1 0.975021 0.100101 0.0251425 0.00896518 -3.35224 -0.0470228 -0.00808047 -0.0208994
1758 1 0.975012 0.0745863 0.0498791 0.0364738 -3.35541 0.0111721 0.05988 -0.076306
1837 1 0.950427 0.100021 0.0497762 0.043718 -3.35906 -0.0672888 0.0319838 0.0234794
162 1 0.0250001 0.125191 4.16971e-05 0.00685498 -3.36324 0.00626083 -0.0747725 -0.0134858
168 1 0.0497819 0.12529 0.0249655 0.0244422 -3.36195 0.08942 -0.0607545 -0.0317052
243 1 0.0250062 0.150135 0.0249644 0.00504707 -3.36016 -0.0158332 0.00768914 -0.0243118
245 1 0.0501921 0.15019 -0.000336878 0.0276248 -3.34974 -0.0555985 -0.049168 0.0731174
1762 1 0.0252582 0.124913 0.0499932 0.018591 -3.35674 -0.0858896 0.03139 0.0535481
1841 1 0.000182372 0.150087 0.0501959 0.00614323 -3.36017 0.00892741 -0.0242192 -0.0220439
1845 1 0.0497088 0.15015 0.0499506 0.0203602 -3.35385 0.0797466 -0.0319724 0.0156937
172 1 0.0999496 0.124842 0.0252362 0.0149851 -3.35107 -0.0164579 0.0558295 -0.0320698
247 1 0.0747979 0.150239 0.0250962 0.0184697 -3.36707 0.0339473 -0.00464185 -0.0239122
249 1 0.099817 0.149862 -6.5837e-05 0.017244 -3.36379 0.038606 0.0177424 -0.0390672
1766 1 0.0751542 0.124978 0.0498585 0.0195012 -3.35902 -0.0764958 0.00851594 0.0271509
1849 1 0.0998346 0.149962 0.0499527 0.00768997 -3.36071 0.0356328 0.0513576 0.0193486
170 1 0.124818 0.124623 5.5253e-05 0.0151845 -3.35923 0.0463222 0.0966051 -0.0265471
176 1 0.149779 0.125001 0.0248254 0.0103284 -3.3602 -0.0259918 0.0104653 0.0453517
251 1 0.124784 0.150017 0.0247531 0.0158336 -3.35982 0.038845 -0.0466895 0.0541472
1770 1 0.124829 0.125114 0.0500285 0.0063812 -3.36511 -0.0206612 0.0057523 0.0364095
1853 1 0.149698 0.150161 0.049889 0.00977862 -3.36203 0.0234641 -0.0354764 0.0215396
180 1 0.200031 0.124963 0.0253919 0.0348038 -3.35217 -0.059785 0.0588893 -0.0596668
255 1 0.174501 0.150233 0.0249678 0.0446403 -3.3641 0.15105 -0.0147633 0.0396979
257 1 0.200022 0.149694 0.000211245 0.0360663 -3.36101 -0.0600971 0.119233 0.00824334
1774 1 0.174997 0.125248 0.0498484 0.0268092 -3.36304 -0.0660854 -0.037879 0.0435842
1857 1 0.200018 0.14977 0.0502759 0.0226483 -3.36175 -0.0319743 0.0932885 -0.040044
184 1 0.249864 0.125173 0.0248417 0.0129705 -3.35731 -0.0568572 0.00177313 0.0787438
259 1 0.224697 0.150497 0.0248948 0.0683379 -3.36526 0.0650861 -0.060782 0.0702454
1778 1 0.225003 0.125114 0.0501583 0.0177056 -3.36181 0.051339 0.0292101 -0.0286246
1861 1 0.250167 0.149918 0.0497622 0.0211867 -3.3628 -0.0516336 -0.00337281 0.0744083
182 1 0.274536 0.124919 0.000447544 0.0317737 -3.35514 0.0879498 0.00129864 -0.133997
188 1 0.299925 0.12454 0.0250458 0.0315932 -3.36141 0.0538699 0.119893 -0.0352033
263 1 0.27511 0.149876 0.0250302 0.0148643 -3.35255 -0.0281829 0.0135997 -0.0188465
1782 1 0.275037 0.125237 0.0497624 0.0177962 -3.35292 0.00412805 -0.0102433 0.0364416
1865 1 0.300214 0.150382 0.0501637 0.0547787 -3.35466 -0.0631234 -0.117995 -0.105046
192 1 0.349916 0.124665 0.0250299 0.018559 -3.36312 -0.0092961 0.107615 -0.0505975
267 1 0.324727 0.150177 0.025037 0.0201098 -3.3612 0.0704834 -0.0991519 -0.0397959
269 1 0.349726 0.149994 -0.00013314 0.0110148 -3.37175 0.00650925 -0.0200844 0.0637902
1786 1 0.324922 0.125007 0.0495737 0.0330128 -3.36219 0.00385358 0.0167521 0.0821192
1869 1 0.3499 0.15 0.0500824 0.00745992 -3.36027 -0.00471305 -0.0274833 -0.0360353
196 1 0.40018 0.125134 0.0249482 0.0207305 -3.3605 -0.089521 -0.0359052 -0.00276056
271 1 0.374877 0.149877 0.0251945 0.0148582 -3.36739 -0.0261873 0.0371689 -0.0678109
1790 1 0.374667 0.124767 0.0500564 0.0135961 -3.35155 0.000200557 0.0302336 -0.0319478
1873 1 0.399644 0.149741 0.050198 0.0154529 -3.36139 0.0623584 0.0412281 -0.00417119
194 1 0.424946 0.125585 -8.74288e-05 0.0639146 -3.35535 -0.000356965 -0.1492 0.079953
200 1 0.45003 0.124759 0.02536 0.0146558 -3.35665 -0.0432023 -0.0168341 -0.0170403
275 1 0.424745 0.149912 0.0253919 0.0319663 -3.35795 0.0788011 0.00214983 -0.0391104
277 1 0.449781 0.149718 0.000211487 0.0245128 -3.35677 0.0543582 0.0727114 0.0164466
1794 1 0.424937 0.124761 0.0502381 0.00974072 -3.35997 -0.0151155 -0.0349907 -0.0377181
1877 1 0.449961 0.149329 0.0503452 0.0468979 -3.35983 0.043683 0.144241 -0.0634196
202 1 0.525084 0.125008 0.00011029 0.00834907 -3.35596 0.0476087 0.00341623 0.0146856
204 1 0.500202 0.124791 0.0248234 0.0388926 -3.35124 0.0188021 -0.0432387 0.0936463
279 1 0.475152 0.149483 0.0252317 0.0282604 -3.35335 -0.0430186 0.144979 0.0308314
281 1 0.500049 0.149805 0.00018067 0.0126226 -3.35204 0.0345417 0.105495 -0.0236675
283 1 0.524847 0.150218 0.025254 0.0267029 -3.35278 0.0213005 -0.0530604 -0.0743361
1798 1 0.475373 0.124799 0.0500436 0.0256961 -3.35893 -0.0762728 0.00121064 0.0857044
1802 1 0.5251 0.124958 0.050333 0.0125561 -3.36047 -0.0536368 -0.00640391 -0.0103143
1881 1 0.500083 0.149757 0.0499107 0.0193086 -3.36281 -0.000477501 0.0471615 0.0808649
206 1 0.575103 0.124876 0.00019118 0.0131395 -3.35925 -0.011341 0.0276378 -0.0301666
208 1 0.549756 0.124819 0.0253145 0.032108 -3.36136 0.075226 0.017845 -0.0664554
285 1 0.550041 0.149747 0.000336808 0.0325528 -3.36625 0.026658 0.0972892 -0.0668079
287 1 0.575097 0.150067 0.0249792 0.018355 -3.36095 -0.0336911 0.00725201 0.0535621
1806 1 0.574987 0.125155 0.0501578 0.0111716 -3.36211 -0.00740169 -0.0319742 -0.0192413
1885 1 0.549744 0.150046 0.0497235 0.0396579 -3.35455 0.0518749 0.029463 0.0964044
212 1 0.600165 0.12505 0.0251831 0.00734294 -3.35601 -0.00553716 -0.00479564 -0.0216754
289 1 0.600022 0.149904 0.000183404 0.0134986 -3.36104 0.0255563 0.0230464 -0.0575069
291 1 0.624959 0.150094 0.0251636 0.0182166 -3.35717 0.0225977 -0.0988608 -0.0336469
1810 1 0.625292 0.124904 0.0500102 0.0160709 -3.36226 -0.0732725 -0.0237624 0.0381107
1889 1 0.600021 0.14977 0.0502213 0.0179256 -3.35598 -0.042992 0.0660922 -0.000176812
214 1 0.675121 0.124992 6.7076e-05 0.00906098 -3.35757 0.0329067 -0.0348648 -0.0200141
216 1 0.650284 0.124782 0.0249646 0.0133235 -3.35775 -0.0463613 0.0529266 0.0252126
293 1 0.650086 0.14978 8.91193e-05 0.0125053 -3.35986 -0.0402039 0.0274375 -0.000286155
295 1 0.675018 0.14984 0.0249658 0.00998286 -3.35737 0.037014 -0.0168475 0.0507417
1814 1 0.675401 0.125051 0.0500232 0.0204094 -3.35797 -0.0532774 0.0103132 -0.0376156
1893 1 0.649989 0.149618 0.0502383 0.0128462 -3.35675 0.0483177 0.00300309 0.00679325
220 1 0.700283 0.124862 0.0247792 0.0241603 -3.35811 -0.018474 0.0786109 0.0722143
299 1 0.724867 0.150118 0.0249295 0.0152651 -3.36143 0.0633549 -0.0150306 0.0734924
1818 1 0.725174 0.124999 0.0502444 0.0135565 -3.36694 -0.0172821 0.0341209 -0.0541618
1897 1 0.699997 0.150178 0.0501934 0.0228899 -3.3598 0.0308436 -0.109074 -0.0468087
222 1 0.775221 0.125316 -2.91714e-06 0.0346155 -3.35655 -0.0464233 -0.150889 0.0393769
224 1 0.750291 0.125157 0.0250905 0.00905661 -3.36442 -0.0213162 -0.0169674 -0.0175242
303 1 0.775148 0.150163 0.025009 0.00581919 -3.35872 -0.0285979 0.0160589 0.0507445
1822 1 0.775141 0.124507 0.0500418 0.0433426 -3.35135 -0.055256 0.160066 0.0143697
1901 1 0.750304 0.150134 0.0499751 0.0168625 -3.36858 -0.034106 -0.0179364 0.00465856
226 1 0.824726 0.124728 0.00029958 0.0222888 -3.36406 0.0825031 0.021528 -0.0417519
228 1 0.799901 0.1251 0.0251677 0.0119158 -3.35207 0.017329 0.000401076 -0.0115359
307 1 0.825074 0.150158 0.0248771 0.0335593 -3.36296 -0.0605827 -0.0695612 0.0499053
1826 1 0.824539 0.124915 0.0501343 0.0282312 -3.35611 0.105683 0.0762693 -0.0435216
1905 1 0.79994 0.150018 0.0502652 0.00995728 -3.36675 0.0325531 0.0258059 -0.0438896
230 1 0.875082 0.125067 0.00022668 0.0222324 -3.36005 0.0150532 -0.0772626 -0.051696
232 1 0.850073 0.124614 0.0252192 0.0279056 -3.36164 -0.0601392 0.0840658 -0.0204509
309 1 0.849933 0.149316 -0.000122441 0.0368771 -3.35698 0.000693258 0.103669 0.0245865
311 1 0.875104 0.149888 0.0251933 0.0181757 -3.35606 -0.0226599 -0.0161648 -0.0553503
1830 1 0.875187 0.125003 0.0501682 0.0132718 -3.35498 -0.0346581 0.0476739 -0.0263838
1909 1 0.849811 0.150088 0.0498359 0.0234611 -3.36387 0.0210396 -0.0439082 0.0129751
234 1 0.924708 0.125436 0.000152404 0.0507464 -3.35048 0.0880963 -0.121629 -0.0822302
236 1 0.900155 0.125287 0.0250066 0.00947994 -3.35533 -0.0389498 0.0206388 -0.00705555
313 1 0.900151 0.150263 -0.000390559 0.0467226 -3.3591 -0.0379602 -0.0163837 0.116132
315 1 0.925125 0.150476 0.0250308 0.023364 -3.36198 -0.0386577 -0.0295988 0.0024459
1834 1 0.925151 0.12502 0.0497462 0.0184698 -3.35238 0.0151257 0.0936286 0.0259086
1913 1 0.900173 0.150164 0.0504127 0.0400815 -3.36002 -0.0132756 -0.037064 -0.084367
164 1 1.00028 0.124817 0.0251713 0.0273625 -3.35313 -0.0525084 0.104615 0.00100745
238 1 0.975107 0.125189 0.000318077 0.0296602 -3.36519 -0.0604696 0.0134794 -0.102865
240 1 0.949836 0.125352 0.0247772 0.0261843 -3.36135 0.107068 -0.0126112 0.0753516
317 1 0.949809 0.150076 -2.20154e-05 0.0165677 -3.35779 0.105792 0.0142661 -0.0178223
319 1 0.975266 0.150261 0.0252029 0.0162917 -3.36428 -0.0600634 -0.0505685 -0.0452546
1838 1 0.975134 0.125354 0.0501473 0.0247902 -3.36345 -0.0307211 -0.0500086 -0.0542043
1917 1 0.950032 0.150449 0.0501278 0.0228279 -3.3587 -0.0333729 -0.0780768 -0.0677023
242 1 0.0249527 0.1751 -0.000374276 0.0148223 -3.36222 -0.0128618 0.0104322 0.0699133
248 1 0.0496196 0.175271 0.0245501 0.0389548 -3.35716 0.0823055 -0.0362071 0.0537067
323 1 0.0250064 0.200331 0.0250136 0.0267633 -3.35568 0.0184536 -0.0798298 -0.0920702
325 1 0.0501528 0.199951 -0.000448288 0.0216569 -3.35382 -0.0972849 0.0655951 0.0670435
1842 1 0.0254308 0.175061 0.0500335 0.0512436 -3.35858 -0.139039 0.0256415 0.0163911
1921 1 0.000294821 0.200334 0.0496087 0.0430784 -3.35797 -0.0849367 -0.10625 0.102286
1925 1 0.0498193 0.19999 0.0498884 0.0141304 -3.36066 0.0357356 0.0103677 0.0462215
246 1 0.0747527 0.174786 -0.000300884 0.0245309 -3.35334 0.0821798 0.00337656 0.0591532
252 1 0.100284 0.175083 0.0247773 0.0432545 -3.35943 -0.166505 -0.0801477 0.0431855
327 1 0.0748774 0.200012 0.0245389 0.0183069 -3.35491 -0.0213775 -0.0747806 0.0839601
329 1 0.0998317 0.199649 -6.31309e-05 0.02045 -3.35562 0.0628117 0.0333447 -0.0607051
1846 1 0.074547 0.175064 0.0499385 0.0238449 -3.36729 0.0727147 0.0178443 -0.015923
1929 1 0.0997197 0.199804 0.0496718 0.0196638 -3.36283 0.0506545 0.0180508 0.0989584
250 1 0.125168 0.17455 -8.6651e-05 0.0327616 -3.35883 -0.0609768 0.0740874 -0.113793
256 1 0.149758 0.175341 0.0249302 0.0373246 -3.34529 0.0491646 -0.101811 0.0385782
331 1 0.124951 0.199667 0.0247426 0.0182276 -3.35308 0.0133087 0.0964183 0.0533641
333 1 0.150035 0.199865 -8.67471e-05 0.0139116 -3.3555 -0.0603351 0.0385299 -0.0581962
1850 1 0.124867 0.174869 0.0501222 0.0169389 -3.35705 -0.0272349 0.0145435 -0.010494
1933 1 0.149879 0.199693 0.0502701 0.0265583 -3.36195 0.0364477 0.10077 -0.0790401
254 1 0.174887 0.175046 0.000217575 0.0196294 -3.36368 0.0879713 -0.0362007 -0.0558732
260 1 0.200066 0.175355 0.0256007 0.069836 -3.36848 -0.0454258 -0.0684758 -0.0907885
335 1 0.174851 0.200258 0.0247604 0.0445161 -3.35821 0.0588241 -0.0642506 0.177948