ITEM: TIMESTEP
17000
ITEM: NUMBER OF ATOMS
32000
ITEM: BOX BOUNDS pp pp pp
6.8819139925675525e+00 7.4118086007427294e+01
-2.4345025850736306e+00 8.3434502585067904e+01
-5.8602036914304847e+00 8.6860203691426804e+01
ITEM: ATOMS id type xs ys zs c_csym c_peratom fx fy fz
2 1 0.0388042 0.0232281 0.00655172 0.121391 -3.3594 0.0342354 -0.151949 -0.182582
78 1 0.00498649 0.0225883 0.0243294 0.0474433 -3.35732 0.0166648 -0.028079 -0.0355024
3 1 0.0344544 0.998349 0.0282035 0.119164 -3.36317 -0.00266168 0.0793257 0.135872
1 1 0.00972141 0.998307 0.0038412 0.0827971 -3.36192 -0.0964154 0.170952 -0.0658149
8 1 0.0627852 0.023811 0.0308867 0.291575 -3.35976 0.320433 -0.26694 -0.0742131
12 1 0.0955211 0.0225791 0.0116987 0.147685 -3.37179 -0.0715238 0.0570523 0.0419486
1610 1 0.121728 0.0226464 0.0353135 0.248901 -3.36153 0.0862327 -0.0252301 0.360981
87 1 0.0673751 0.04838 0.00855679 0.27983 -3.33731 0.141139 -0.382213 0.022812
7 1 0.0668161 0.997523 0.0101553 0.238965 -3.35592 0.0213677 0.25353 -0.0536847
1609 1 0.0923812 0.997778 0.033992 0.153715 -3.33126 0.042059 0.308527 0.086137
91 1 0.126474 0.046381 0.0136562 0.180827 -3.34483 -0.0925788 0.195732 0.119882
16 1 0.155541 0.0225295 0.0170909 0.164452 -3.35875 -0.091057 0.081853 -0.0169117
1614 1 0.180041 0.0229224 0.0423624 0.180367 -3.33216 0.0470076 -0.00012721 -0.144241
95 1 0.184577 0.0477548 0.0197692 0.0903885 -3.32951 -0.0149904 -0.0322249 -0.050303
1693 1 0.151673 0.0467495 0.0381917 0.109466 -3.34797 -0.041419 -0.0440653 0.144649
15 1 0.184256 0.999578 0.0198519 0.232528 -3.3296 0.0590872 -0.158558 -0.0125011
1613 1 0.152003 0.998907 0.0393983 0.212096 -3.36262 -0.275291 -0.0167712 0.119942
20 1 0.211613 0.0242388 0.0222248 0.249431 -3.33035 0.159998 -0.144598 -0.101392
1618 1 0.236729 0.0235392 0.0457259 0.39858 -3.33753 0.227267 -0.0678643 0.245962
99 1 0.242942 0.0479593 0.0246582 0.799827 -3.34682 -0.0447189 0.00973808 0.01736
1697 1 0.20891 0.0481882 0.0444579 0.324208 -3.33124 0.12111 -0.192477 -0.167624
18 1 0.245056 0.0233404 0.00291178 0.529119 -3.36244 0.00734428 0.0549602 -0.0661942
19 1 0.239604 0.999496 0.0241935 0.290619 -3.32396 -0.0641422 -0.0426019 0.164408
1617 1 0.208311 0.998755 0.0439839 0.0812959 -3.34042 -0.00253265 0.0303127 0.0985698
24 1 0.270385 0.0237104 0.0277235 5.14571 -3.36856 0.261523 -0.0065481 0.0970928
22 1 0.298464 0.0286362 0.0040244 6.294 -3.19435 -0.255917 0.0839354 -0.153416
23 1 0.299842 0.999188 0.0309522 5.27475 -3.36319 -0.109938 -0.175671 0.125492
21 1 0.27391 0.000148399 0.00728147 1.76251 -3.28943 -0.0922963 -0.0366907 0.0188059
28 1 0.318883 0.0276147 0.0280439 1.02127 -3.20396 0.328905 0.161202 0.11702
32 1 0.360716 0.0346533 0.0248732 0.525694 -3.27128 -0.127135 -0.134524 -0.102381
26 1 0.339836 0.0364582 0.999761 6.50131 -3.24835 -0.409831 0.100812 0.0992092
25 1 0.323469 0.00606948 0.00577931 6.24905 -3.09562 0.247973 -0.116875 -0.00330158
27 1 0.344389 0.00380922 0.0286434 0.523704 -3.2235 0.352987 -0.254774 0.0662571
31 1 0.385927 0.00986602 0.0221442 1.27181 -3.27921 0.0717096 0.0872095 0.664316
36 1 0.404469 0.0409066 0.0211003 5.56618 -3.33006 -0.184866 -0.0945171 0.202973
35 1 0.430749 0.0158979 0.0214438 7.6251 -3.31279 -0.0818373 0.111778 0.103651
1634 1 0.425847 0.0406707 0.045964 6.94448 -3.32652 0.125719 -0.23377 -0.173856
40 1 0.440164 0.042109 0.00452276 2.59093 -3.26922 -0.0418667 -0.0177414 0.051086
39 1 0.468874 0.0181572 0.00974986 6.97083 -3.25858 0.0766065 -0.360621 0.0461218
1637 1 0.453222 0.0160476 0.0457128 6.17347 -3.24333 -0.185576 -0.419143 -0.018764
1638 1 0.463808 0.0400844 0.0306727 0.365795 -3.25899 -0.0160241 0.326671 0.159692
1641 1 0.494929 0.0166089 0.0367411 6.42999 -3.24167 -0.0837382 0.100743 -0.357702
44 1 0.499852 0.0400078 0.016512 5.63763 -3.22766 -0.0200744 0.251772 -0.287262
43 1 0.528734 0.0193488 0.0149797 11.6943 -3.25827 0.043416 -0.129626 0.102151
48 1 0.560779 0.0374125 0.0266751 6.5802 -3.29744 0.16799 0.0743886 0.054674
1642 1 0.525889 0.0376854 0.042063 1.08083 -3.24919 -0.389097 -0.250749 0.152389
52 1 0.569966 0.0112997 0.0128812 6.43382 -3.26741 0.170366 -0.0771729 -0.0947576
1650 1 0.595096 0.0180737 0.0356765 2.44537 -3.20598 0.117541 0.0750745 0.000539389
131 1 0.601597 0.0386056 0.0149551 0.934038 -3.23572 -0.256453 0.152301 -0.153596
56 1 0.632412 0.0181419 0.0223946 0.472143 -3.29304 0.382244 -0.163346 0.0512748
135 1 0.664212 0.0433881 0.0237506 7.81681 -3.30104 -0.0430151 -0.199946 -0.174905
1654 1 0.661022 0.0242407 0.0484749 0.951653 -3.2631 0.136453 -0.232252 -0.156449
60 1 0.695263 0.0220571 0.0321988 5.77712 -3.2589 -0.177229 -0.154808 -0.0608839
1657 1 0.693934 0.999381 0.0533965 1.01696 -3.27381 -0.323836 0.182499 0.171955
1737 1 0.688797 0.0503548 0.0480381 8.32516 -3.18114 0.0361559 -0.172148 -0.259019
59 1 0.727631 -0.000132568 0.0376918 6.19788 -3.20522 0.0486368 0.0833048 0.0691564
64 1 0.73062 0.0232048 0.017964 6.36491 -3.28416 0.329202 -0.0996433 0.00583297
139 1 0.707682 0.0497204 0.0209313 9.85335 -3.25146 -0.147944 0.0930211 -0.233694
1658 1 0.726614 0.0297393 0.0508623 10.4475 -3.28707 0.0265058 -0.147522 -0.0899422
68 1 0.793143 0.020938 0.0269683 9.98335 -3.2781 -0.258113 0.203256 -0.0450463
63 1 0.762351 0.000418695 0.0233035 10.3915 -3.26034 0.249544 0.080368 -0.240296
143 1 0.761042 0.0453066 0.0217524 10.2002 -3.29018 0.124243 -0.0442815 0.162179
1745 1 0.791014 0.0487705 0.0425989 5.97456 -3.28278 0.266747 -0.221164 0.186278
65 1 0.7971 0.998716 0.00421809 0.181916 -3.3229 0.108989 -0.191609 0.230786
72 1 0.856246 0.0229758 0.0310974 0.4677 -3.3365 -0.353871 -0.0385522 0.103624
69 1 0.85662 0.998582 0.0110918 0.228911 -3.37062 0.0432967 -0.0420697 -0.0309794
147 1 0.826553 0.0474793 0.0271005 0.720177 -3.32264 -0.28909 -0.0540548 -0.045223
149 1 0.858155 0.0454892 0.00860159 0.217399 -3.34943 0.056331 0.172225 -0.0439987
1666 1 0.82139 0.0240277 0.0478575 6.27716 -3.28611 0.226298 0.110706 0.0791904
66 1 0.827689 0.0221492 0.00821796 0.495977 -3.35207 -0.0612334 -0.11612 -0.128805
71 1 0.883917 0.99866 0.0354212 0.141223 -3.35069 -0.0973923 0.017907 -0.206797
76 1 0.914648 0.0229367 0.0367707 0.185336 -3.34077 -0.310402 0.0371503 0.138435
70 1 0.888052 0.0225072 0.0126382 0.0457292 -3.33808 -0.0399848 -0.0531205 -0.0297205
73 1 0.916459 0.998779 0.016717 0.090979 -3.34026 0.0152745 -0.0428786 -0.100942
151 1 0.884925 0.0468754 0.0328665 0.0794812 -3.36108 -0.0216896 -0.00602634 0.146065
153 1 0.918357 0.0467507 0.0147185 0.110613 -3.36604 -0.0486827 -0.0309435 0.00166709
74 1 0.946719 0.0228104 0.0185147 0.0480578 -3.3376 0.0985921 -0.0586683 -0.119261
75 1 0.942985 0.999 0.0403911 0.100591 -3.34767 -0.122005 -0.0218861 0.0424074
80 1 0.972058 0.0227576 0.0426445 0.0818451 -3.34507 0.0299104 0.0472362 0.0715778
77 1 0.976065 0.997759 0.0221198 0.190831 -3.34959 -0.0630858 0.212952 -0.170485
155 1 0.943376 0.0464369 0.0398237 0.172065 -3.34989 0.000783885 0.176544 -0.227821
157 1 0.97645 0.046571 0.0198926 0.147035 -3.36418 -0.100843 0.00859709 0.0972432
84 1 0.0309333 0.0713009 0.0476153 0.0732705 -3.36161 0.00320223 -0.0477843 0.0153035
82 1 0.0642392 0.0711094 0.0293203 0.107579 -3.36832 -0.0585482 0.217826 -0.0195975
81 1 0.0343891 0.0472846 0.0268942 0.0653883 -3.32372 0.0166756 0.0812117 0.0264959
159 1 0.00108351 0.0478559 0.0444598 0.208256 -3.3511 -0.0470417 -0.189217 0.211888
158 1 0.00516123 0.0712497 0.0230367 0.108505 -3.35637 0.0865398 -0.0182611 -0.0919027
161 1 0.0336908 0.0952095 0.0244984 0.388045 -3.35623 0.208399 -0.141086 0.229998
239 1 0.00134859 0.0947006 0.0452983 0.348001 -3.33129 -0.000791177 -0.0427639 -0.363479
30484 1 0.038357 0.0708921 0.00427363 0.148091 -3.33101 -0.0181595 0.157706 0.29805
1689 1 0.0937379 0.0477531 0.0323761 0.172492 -3.36661 -0.0813442 -0.200901 0.0956076
92 1 0.0983815 0.0722369 0.0112258 0.328675 -3.3364 -0.133217 -0.275346 0.150106
171 1 0.12703 0.0953955 0.0136428 0.0785054 -3.35674 0.208215 0.117478 0.0329529
1690 1 0.123721 0.0707049 0.0357207 0.233727 -3.33155 -0.144297 0.106309 -0.181578
167 1 0.0928736 0.0963224 0.031526 0.223806 -3.36838 0.0120721 -0.180076 0.0940722
165 1 0.067852 0.095691 0.0070052 0.0833355 -3.35401 0.0315412 0.0346302 0.264812
96 1 0.156183 0.0705605 0.0166118 0.123845 -3.3536 -0.0922364 0.193623 -0.140144
1694 1 0.180804 0.0717035 0.0413717 0.153206 -3.32677 0.0283232 -0.143315 0.00904233
175 1 0.185131 0.0952718 0.0183401 0.198182 -3.34241 0.00548661 0.0792832 0.150571
1773 1 0.152391 0.0946014 0.0376604 0.183114 -3.34532 -0.140058 0.251879 0.0356419
100 1 0.214624 0.0724951 0.0215636 0.481588 -3.35632 0.0091985 -0.19214 -0.0317501
1777 1 0.210367 0.0945351 0.0437561 0.889846 -3.34312 0.0072326 0.201279 0.0494884
98 1 0.24553 0.073596 0.999702 6.16498 -3.31644 -0.120261 0.320384 0.034214
179 1 0.240569 0.0987474 0.0210757 6.20784 -3.31446 0.0261131 -0.127066 0.029292
1698 1 0.240198 0.0708351 0.0467677 5.01433 -3.34769 0.0593958 0.116714 0.108665
103 1 0.2947 0.0516422 0.0264007 5.67085 -3.24543 -0.255737 0.170086 -0.122334
101 1 0.271616 0.0508833 0.00248363 5.65023 -3.23512 -0.108578 -0.0897306 0.0776601
104 1 0.268106 0.0749762 0.0246028 5.79416 -3.31522 -0.0207331 0.137547 -0.236731
108 1 0.309372 0.0830157 0.0197786 0.181228 -3.33141 -0.166125 0.0489769 0.0844957
1781 1 0.264383 0.0991018 0.0454399 5.90939 -3.29592 -0.077649 -0.0721559 0.0790879
107 1 0.335424 0.058939 0.0220735 0.104311 -3.29994 -0.142599 0.0579688 0.00987241
112 1 0.350743 0.0906712 0.0166223 6.47694 -3.33936 -0.0162537 0.0494043 -0.217599
1706 1 0.332076 0.0828732 0.0444954 0.166032 -3.33024 -0.288254 0.181139 0.0914598
1710 1 0.372718 0.0892646 0.0412801 7.25354 -3.31833 0.000328055 0.293192 -0.0267512
111 1 0.37583 0.0652269 0.0196513 6.85679 -3.31089 0.109372 0.187545 -0.242406
115 1 0.410469 0.0650591 0.00182337 4.12633 -3.28011 0.0205126 -0.160238 -0.117652
1713 1 0.399659 0.0654688 0.0433084 7.40139 -3.3104 0.011133 -0.198604 -0.0324949
116 1 0.406254 0.0890103 0.0219066 0.508894 -3.34079 -0.130226 0.0888619 -0.0213215
1714 1 0.430682 0.0871222 0.046488 0.910927 -3.34938 -0.0993529 0.190015 0.406402
119 1 0.469745 0.0638308 0.0118666 2.15947 -3.28021 0.569733 -0.0655399 -0.331236
120 1 0.442524 0.0868803 0.00650753 2.42565 -3.29268 -0.11287 0.176443 -0.0183729
1717 1 0.434208 0.0638806 0.0257583 0.355728 -3.27711 0.118186 0.0677171 0.341244
1718 1 0.467005 0.0868764 0.0318935 0.42229 -3.31533 -0.111552 -0.00651651 0.00815787
124 1 0.503849 0.0859306 0.0173461 0.598032 -3.24049 -0.235887 -0.156119 0.5268
1721 1 0.494735 0.0623857 0.0386021 0.380775 -3.35485 0.0770565 -0.0843905 -0.310184
123 1 0.531408 0.0613934 0.0234594 4.29516 -3.31183 -0.025039 -0.139108 -0.381396
128 1 0.539328 0.0851279 0.00273788 0.174685 -3.27659 0.0884631 -0.114385 -0.137282
1726 1 0.559794 0.0835718 0.0283132 0.292654 -3.30447 0.261487 0.266835 0.251234
121 1 0.509042 0.0630157 0.99659 8.99173 -3.26035 -0.155774 -0.0787623 0.286111
127 1 0.569064 0.0608116 0.00805713 6.84713 -3.29746 -0.247933 0.0240841 0.114241
132 1 0.596451 0.0850959 0.0138949 6.64459 -3.32353 0.308543 -0.310756 -0.400034
1729 1 0.590047 0.0596568 0.0348951 1.126 -3.32869 -0.0140797 -0.102652 0.0487347
1730 1 0.618 0.0820154 0.0399577 9.87476 -3.25657 -0.0815675 0.236594 0.0613727
136 1 0.628491 0.0634492 0.0173022 7.34548 -3.26031 0.12648 0.0151769 -0.292753
1733 1 0.628029 0.0434492 0.0397797 6.09495 -3.247 -0.185573 0.0856534 -0.0673805
1734 1 0.655003 0.0703552 0.0392098 11.4845 -3.23232 0.15835 0.0661175 0.350432
140 1 0.675179 0.072111 0.0135691 10.8058 -3.27332 0.135883 0.122548 -0.0265446
215 1 0.642481 0.0927734 0.0108093 8.9044 -3.28146 0.161922 -0.127076 -0.0884087
144 1 0.736051 0.0708457 0.0165923 5.69566 -3.29209 -0.0235367 0.150949 -0.0299272
219 1 0.706135 0.0935492 0.0123989 6.59027 -3.29392 0.0748497 0.0681315 0.296233
1738 1 0.722824 0.0649031 0.0478093 9.47394 -3.23547 0.160038 0.1989 -0.0429334
1821 1 0.730002 0.0943448 0.0383008 8.3375 -3.30553 0.00576503 -0.0427445 -0.110303
1817 1 0.68875 0.0888018 0.0408475 11.4675 -3.27953 -0.0482419 -0.18988 0.163288
148 1 0.794368 0.0708385 0.0218248 0.451929 -3.33939 -0.0729821 0.0213772 -0.151561
223 1 0.764185 0.0947934 0.019195 0.286066 -3.33917 0.269396 -0.237296 -0.272319
1825 1 0.7919 0.095034 0.0427158 0.14628 -3.32905 -0.0572707 -0.0147251 -0.0448196
1742 1 0.761276 0.0719324 0.040395 4.90545 -3.24884 0.151772 -0.0469253 -0.118811
152 1 0.855742 0.0710642 0.0296282 0.228148 -3.35026 -0.0482271 -0.113875 -0.161566
1746 1 0.821704 0.072039 0.0467688 0.178816 -3.34399 -0.19301 -0.274642 0.0599018
229 1 0.858668 0.0937836 0.00722082 0.0479265 -3.35266 0.0338075 0.103562 0.139793
146 1 0.828584 0.0698381 0.00476415 0.189487 -3.31975 -0.0609742 -0.102478 0.040479
227 1 0.824322 0.0934991 0.0241573 0.426123 -3.35438 0.0767024 0.350386 0.0536
156 1 0.914097 0.0704859 0.0356314 0.0430372 -3.35411 0.083514 0.0270301 -0.0663013
150 1 0.888148 0.0695483 0.0108534 0.135299 -3.35207 0.0408737 0.179324 0.0990714
233 1 0.917793 0.0935506 0.0135512 0.112719 -3.36987 0.0346506 0.0704235 0.103475
231 1 0.884976 0.0945716 0.0318214 0.0800314 -3.35621 0.00749946 -0.0638638 -0.101053
154 1 0.94803 0.0706059 0.0166086 0.160683 -3.35005 -0.252244 -0.0539847 0.0498436
160 1 0.972049 0.0711064 0.040589 0.377241 -3.32426 0.154724 -0.208568 0.354104
237 1 0.976768 0.0948782 0.0196711 0.0958443 -3.34345 -0.0881535 -0.0348426 -0.0128394
235 1 0.944256 0.0938956 0.0388093 0.301324 -3.35257 -0.249074 0.318935 -0.245764
164 1 0.0303385 0.117966 0.046545 0.286116 -3.33776 -0.00359391 0.394497 -0.0662524
162 1 0.0630824 0.120168 0.0281804 0.201195 -3.35056 0.107302 -0.259477 0.0211088
241 1 0.0340733 0.143755 0.024291 0.087457 -3.37187 0.0335343 -0.0122805 0.0241316
238 1 0.00549336 0.118419 0.0220316 0.160002 -3.34962 -0.107015 0.211013 0.0171988
30564 1 0.0383249 0.119467 0.00393924 0.059295 -3.35006 -0.00302808 0.067263 -0.180963
172 1 0.122089 0.119662 0.0347687 0.101808 -3.35941 0.0641291 -0.115521 -0.0550937
249 1 0.127808 0.143701 0.0124626 0.299734 -3.33641 -0.250105 0.0170333 0.0760138
245 1 0.0924852 0.143831 0.0307678 0.100528 -3.35129 0.0679268 0.051946 0.114151
30643 1 0.0685226 0.143164 0.00640235 0.241723 -3.3479 -0.24018 0.205356 -0.00356316
166 1 0.0978302 0.120003 0.0100012 0.0843937 -3.34411 -0.0567904 -0.0777913 0.0245207
176 1 0.156745 0.119676 0.0157055 0.253202 -3.3474 -0.221271 -0.236581 -0.0465778
255 1 0.183093 0.144747 0.0174974 6.71012 -3.30832 0.0238952 0.00667626 -0.0725607
251 1 0.150714 0.142696 0.0368906 0.320205 -3.31335 -0.0446024 0.218222 0.170221
1774 1 0.179944 0.119218 0.0411673 0.535952 -3.3436 0.314172 -0.192255 -0.141822
180 1 0.211433 0.122096 0.0196501 6.19763 -3.2959 -0.0944239 -0.404144 -0.187734
1778 1 0.234907 0.121192 0.0430811 5.67892 -3.29532 0.299165 -0.105045 0.365956
1857 1 0.207494 0.144067 0.0414169 6.79553 -3.30402 -0.0351094 0.257588 0.210275
184 1 0.252867 0.130185 0.0154911 0.0597097 -3.3059 0.188238 -0.0448602 -0.127326
183 1 0.282294 0.106994 0.0174753 0.202633 -3.33575 -0.211931 -0.0143782 0.0189047
188 1 0.294394 0.139367 0.0126845 7.1458 -3.37777 -0.0367814 -0.252941 -0.204343
1782 1 0.276613 0.129795 0.03986 0.202008 -3.31712 0.106596 0.113509 0.109897
1785 1 0.304323 0.107022 0.0437609 0.36559 -3.32787 0.136048 -0.238002 -0.17328
1789 1 0.345771 0.114294 0.0390718 7.79276 -3.34976 0.0740544 -0.128615 0.0628565
187 1 0.322232 0.114528 0.0143304 7.66398 -3.33494 0.078045 0.10938 0.0096431
192 1 0.35165 0.138139 0.0177367 0.165426 -3.32497 0.0268998 -0.118592 0.00791684
1786 1 0.318394 0.137989 0.0375531 6.90281 -3.33577 -0.150047 -0.0302358 -0.109476
195 1 0.435333 0.111955 0.026093 1.17802 -3.3646 0.131359 -0.0681979 0.111696
191 1 0.380258 0.113718 0.0194748 0.218595 -3.34396 0.0438457 -0.0566805 0.0108552
196 1 0.409305 0.136806 0.0242576 0.306839 -3.28959 0.0395986 -0.121482 0.087577
193 1 0.412402 0.111896 0.99838 2.71001 -3.29477 -0.253146 -0.0196325 0.212624
190 1 0.386551 0.138023 0.999356 1.77264 -3.28995 0.161719 0.185515 -0.0520156
1790 1 0.375784 0.136637 0.0427847 0.103054 -3.33763 -0.11273 0.0944217 0.00333717
194 1 0.438692 0.135229 0.00356934 3.46683 -3.31854 0.315021 0.104906 -0.0108944
199 1 0.472212 0.111186 0.0125716 0.599508 -3.29397 -0.021225 0.155747 0.141804
200 1 0.46554 0.134083 0.0321831 0.636842 -3.32597 0.0184546 0.0668131 0.0307817
203 1 0.510229 0.110163 0.9973 0.529735 -3.26787 -0.00456194 0.108198 0.044325
1805 1 0.530421 0.108627 0.0229817 0.404079 -3.31114 0.557832 0.364203 -0.0787617
208 1 0.537851 0.133445 0.00173559 6.23094 -3.29098 0.121687 -0.42845 -0.167329
1802 1 0.500953 0.134857 0.0156978 0.768811 -3.32783 -0.152955 -0.271224 0.27459
1806 1 0.562351 0.131853 0.0275034 6.38214 -3.36603 -0.11715 -0.189957 -0.218995
207 1 0.568688 0.108962 0.00690547 6.61233 -3.33843 -0.012503 0.0341259 0.345202
212 1 0.586767 0.138598 0.00245654 6.29151 -3.29206 -0.107212 -0.229688 -0.0540991
211 1 0.614203 0.115123 0.00600312 6.81557 -3.30225 -0.0504493 0.0403994 0.00581571
1809 1 0.590744 0.106646 0.033523 7.14925 -3.30735 -0.274525 0.262307 0.124435
1810 1 0.609156 0.135998 0.0286603 6.57757 -3.27955 0.143712 -0.0714822 -0.0165331
216 1 0.644671 0.138235 0.00825234 1.5711 -3.34167 0.3325 -0.198525 0.32266
220 1 0.674804 0.114364 0.0116384 5.57844 -3.30046 -0.243115 0.103303 0.207594
1813 1 0.633846 0.111656 0.0333362 12.6935 -3.22505 0.353787 -0.000421443 0.00501785
224 1 0.735971 0.117285 0.0150364 0.158855 -3.34438 -0.0491828 0.0588751 -0.156773
1818 1 0.703149 0.118165 0.0333948 4.96059 -3.22925 0.081577 -0.192533 -0.305848
1901 1 0.733809 0.141973 0.0345247 0.338348 -3.29368 -0.157608 0.0106694 0.114885
299 1 0.70747 0.141002 0.0112964 0.41324 -3.28586 -0.171492 -0.136625 0.0310703
228 1 0.794872 0.118114 0.0208531 0.049307 -3.34449 0.0801839 -0.135136 0.0521812
1822 1 0.76126 0.118291 0.0389636 0.155047 -3.33393 0.141638 0.133003 0.0911504
303 1 0.765919 0.142173 0.0168791 0.105022 -3.33817 0.00103469 -0.0436893 0.00162017
1905 1 0.791242 0.142123 0.0413449 0.0820253 -3.3691 -0.103671 0.170274 0.0432636
232 1 0.854756 0.118143 0.0276783 0.0523666 -3.34625 0.0108722 0.026037 -0.167159
1826 1 0.8206 0.118652 0.0449034 0.0528682 -3.35251 0.025215 -0.0601094 0.168189
307 1 0.824626 0.141847 0.0236118 0.0696798 -3.35256 0.0522722 0.0955686 -0.160367
309 1 0.859195 0.141488 0.00562383 0.266952 -3.34303 -0.218647 0.14999 0.0561444
236 1 0.914806 0.11853 0.0339317 0.103662 -3.3453 -0.0348624 -0.208789 0.0205653
230 1 0.888542 0.118316 0.0101961 0.138998 -3.34555 -0.161819 -0.0962664 -0.0831851
311 1 0.884554 0.143265 0.0299848 0.285489 -3.34112 -0.275412 -0.270116 -0.0276333
313 1 0.917205 0.142232 0.0117621 0.0742946 -3.35017 -0.0160383 0.135322 -0.0525754
234 1 0.947525 0.117734 0.0157662 0.129367 -3.34115 -0.115966 -0.0252457 0.113269
240 1 0.973165 0.118452 0.0413591 0.181686 -3.34589 -0.0504684 -0.0819868 -0.278482
315 1 0.943495 0.141676 0.0358515 0.18447 -3.33746 -0.156834 0.15478 0.134397
317 1 0.97578 0.142233 0.0175489 0.107471 -3.32615 0.131183 -0.0550608 0.131055
319 1 0.000765976 0.142773 0.042503 0.120668 -3.3442 0.290955 -0.115282 -0.0797599
244 1 0.0299985 0.166734 0.0451702 0.0815188 -3.35541 0.143671 0.0411294 0.0388044
242 1 0.0631411 0.168484 0.0270064 0.196985 -3.33669 -0.117038 -0.319203 0.156627
321 1 0.0338733 0.191763 0.0234675 0.0856962 -3.33127 -0.220882 -0.0747738 0.055405
318 1 0.00395852 0.167455 0.0200683 0.1363 -3.35904 0.242272 -0.018278 0.191872
246 1 0.12157 0.167791 0.0341664 0.111266 -3.34631 -0.0224484 -0.130811 -0.214627
325 1 0.0930079 0.191314 0.0304468 0.315334 -3.30265 -0.0639815 0.152728 0.0658102
30727 1 0.126091 0.192187 0.0116003 6.94224 -3.3327 -0.0419738 -0.01049 0.320726
30723 1 0.0669282 0.193173 0.00617866 0.359804 -3.32044 0.117512 -0.218338 -0.210134
30648 1 0.095387 0.168011 0.00952023 0.407479 -3.32848 0.38191 -0.0539224 -0.0976696
256 1 0.179114 0.167885 0.0398681 7.14406 -3.34389 0.0744047 0.0225144 -0.191629
250 1 0.155308 0.168402 0.0148842 7.37114 -3.31805 0.0724619 0.0617581 0.194076
329 1 0.150939 0.191829 0.0361818 7.19894 -3.36294 -0.0388468 -0.0603554 0.16929
335 1 0.167638 0.201256 0.00894602 7.09291 -3.29912 -0.00851275 -0.0787631 0.0849055
259 1 0.224399 0.153084 0.0136813 0.0751948 -3.32688 -0.125149 0.211056 -0.176464
260 1 0.194683 0.176278 0.0114467 0.252509 -3.32912 0.242702 0.0880463 -0.00433632
264 1 0.236732 0.185913 0.00841665 7.27478 -3.36174 -0.0615144 -0.219769 -0.0956346
1858 1 0.21987 0.176589 0.0354277 0.236367 -3.32816 0.110746 -0.246458 0.168079
1937 1 0.191891 0.200059 0.0347189 0.204524 -3.28003 -0.212487 -0.0517809 -0.253229
1861 1 0.248238 0.152287 0.037956 0.163782 -3.32998 0.0385959 0.28368 0.117665
263 1 0.265443 0.162164 0.00993883 7.6973 -3.35476 0.0679004 -0.0763858 0.158846
1862 1 0.261582 0.184121 0.0330295 7.55331 -3.35358 -0.127038 0.154101 -0.0142459
268 1 0.295006 0.185792 0.0139983 0.100893 -3.31508 0.0962071 -0.221832 0.0451044
1865 1 0.290193 0.161954 0.0356397 6.94194 -3.34374 0.00777738 -0.234293 -0.250991
267 1 0.323754 0.162253 0.015788 0.142666 -3.32919 -0.0120642 -0.0278665 -0.00618047
272 1 0.354256 0.18603 0.0202535 0.177294 -3.35046 0.156438 0.0193702 -0.0418029
1869 1 0.347796 0.161478 0.0402544 0.205073 -3.32481 0.168753 -0.167725 0.141635
1866 1 0.321163 0.185347 0.0384085 0.287894 -3.31562 -0.22447 -0.0386548 0.0652568
269 1 0.358419 0.162678 0.998428 0.235975 -3.32806 -0.0979369 0.0801255 -0.260317
271 1 0.382056 0.160701 0.0223843 0.160678 -3.32342 -0.0245001 0.318932 0.00395837
273 1 0.416164 0.161739 0.00406129 2.29155 -3.30373 0.109903 0.18718 -0.0638315
276 1 0.411298 0.185185 0.028011 0.0916926 -3.33631 -0.200726 -0.104354 0.0908741
270 1 0.38936 0.186935 0.002461 0.352377 -3.34467 -0.192548 -0.0334815 -0.0432571
275 1 0.438276 0.159317 0.0293248 0.299979 -3.29986 -0.124051 0.087013 0.240616
280 1 0.444467 0.186335 0.0111995 5.13243 -3.27333 -0.00345683 -0.0796372 -0.012591
279 1 0.468793 0.158745 0.0115473 6.21893 -3.29567 0.12059 -0.0791496 -0.145715
284 1 0.497965 0.181543 0.0164744 1.59183 -3.28493 0.0527468 -0.145896 -0.224527
1881 1 0.494384 0.157542 0.0377137 0.301705 -3.33201 -0.00325095 -0.158258 -0.112467
1878 1 0.46791 0.183142 0.0348708 0.293583 -3.30894 -0.23786 0.0431095 0.323888
283 1 0.501829 0.159206 0.994518 1.49989 -3.32978 0.0470902 -0.0901479 -0.0761723
288 1 0.528839 0.182852 0.996644 0.66189 -3.30173 -0.179837 -0.139994 -0.163555
1882 1 0.523344 0.179359 0.0422538 0.694897 -3.29145 -0.0329758 0.0685874 -0.203646
1885 1 0.528599 0.156605 0.0196205 1.06224 -3.30164 -0.0258341 0.347845 0.334893
1886 1 0.554459 0.181128 0.0219979 0.330104 -3.30054 -0.0148626 0.0552035 0.143395
287 1 0.557868 0.160295 0.999107 2.05459 -3.27073 0.0561558 0.0570216 -0.083238
291 1 0.617005 0.16005 0.00631126 0.70399 -3.29522 0.0810024 0.189036 -0.0543213
292 1 0.587337 0.182174 0.00224471 0.433104 -3.27388 0.156453 -0.013586 0.107288
1889 1 0.584197 0.16005 0.0243975 6.49381 -3.28274 -0.12706 0.0893781 0.216016
1890 1 0.6173 0.178869 0.0313472 7.07816 -3.28033 -0.404781 0.0451577 -0.00725109
295 1 0.676578 0.165332 0.00947228 3.72802 -3.27919 0.0105165 -0.284999 -0.0769186
296 1 0.644583 0.18392 0.00890947 1.07277 -3.27251 0.0855436 -0.0127646 -0.183881
1893 1 0.641729 0.15498 0.0358993 5.99439 -3.19965 0.0801416 -0.266337 -0.146597
1894 1 0.665648 0.181292 0.035852 11.7861 -3.32002 -0.0914656 -0.012211 -0.116859
1897 1 0.675124 0.141042 0.0289558 8.02027 -3.20072 -0.1053 0.181352 -0.114819
300 1 0.702789 0.165794 0.0314085 4.50977 -3.30236 0.0421135 0.0385906 0.286167
304 1 0.736007 0.16518 0.0141914 0.220897 -3.33183 0.24307 0.0472024 -0.420561
379 1 0.733772 0.190262 0.0328153 0.356738 -3.31337 -0.109335 0.208199 -0.205029
308 1 0.795206 0.166885 0.0191028 0.232198 -3.32687 0.039746 -0.472971 0.12901
1902 1 0.762481 0.166617 0.037553 0.159528 -3.33543 0.142235 -0.091559 -0.112761
383 1 0.766317 0.189348 0.015078 0.194497 -3.33591 -0.173258 0.254172 -0.0838162
1985 1 0.790588 0.191032 0.0391843 0.114995 -3.33869 0.105611 -0.0213261 0.103523
1906 1 0.821072 0.166143 0.0433822 0.127959 -3.35018 -0.215151 0.176623 -0.028582
312 1 0.853592 0.166424 0.0250727 0.118945 -3.35499 0.127911 0.0192266 0.251301
387 1 0.822624 0.190527 0.0208428 0.442835 -3.33025 0.600896 0.141734 0.332214
1989 1 0.849361 0.190632 0.0456528 0.0797447 -3.36587 -0.0690167 0.0655818 -0.155019
389 1 0.857292 0.189917 0.003497 0.0807437 -3.34725 -0.158978 0.250631 0.0989029
310 1 0.886921 0.166535 0.00750095 0.115603 -3.32952 0.0794065 -0.187144 0.0185644
316 1 0.911814 0.166285 0.0326459 0.261432 -3.34374 0.376549 0.0458206 -0.0777688
391 1 0.883418 0.190935 0.0281321 0.116956 -3.33767 -0.135081 -0.157216 -0.068627
393 1 0.916329 0.18956 0.0109282 0.269714 -3.35303 0.128997 0.250826 -0.0826778
314 1 0.94613 0.166317 0.0143672 0.0704529 -3.34868 -0.109672 -0.0435345 -0.0214561
320 1 0.971193 0.165519 0.0380914 0.266989 -3.31892 0.222029 0.327222 0.0666413
395 1 0.943094 0.190223 0.0351649 0.312739 -3.36152 -0.304631 0.145136 -0.196535
399 1 0.000701812 0.191315 0.0415633 0.162921 -3.35802 -0.156334 -0.219347 -0.229176
397 1 0.974553 0.190504 0.0154557 0.297665 -3.33816 0.105701 0.0993881 0.421731
322 1 0.0634741 0.215289 0.0284288 5.18745 -3.30494 0.0538825 0.255221 -0.0756634
324 1 0.0286027 0.214767 0.0454728 0.2974 -3.31803 0.211802 0.176924 -0.252864
403 1 0.0593231 0.239497 0.0494882 5.22264 -3.27001 -0.02984 -0.345467 -0.302348
401 1 0.0347093 0.239129 0.0242804 8.29161 -3.3139 -0.00725439 -0.0418137 -0.00659316
398 1 0.00411312 0.215252 0.019113 0.131302 -3.32299 0.0124257 -0.0705145 0.143322
326 1 0.121219 0.215165 0.0342875 9.42274 -3.32658 -0.0525986 -0.089141 0.0736506
405 1 0.0773256 0.246518 0.023436 14.5221 -3.32865 -0.18129 -0.239576 -0.126655
409 1 0.110563 0.247429 0.00458853 5.66387 -3.25227 -0.197015 -0.185947 -0.198727
30728 1 0.096877 0.217243 0.0106258 10.5834 -3.34008 -0.138045 0.0217164 0.0572791
336 1 0.16243 0.223026 0.0320809 6.54621 -3.26578 0.218478 -0.127754 -0.226301
330 1 0.138677 0.223595 0.00727068 6.47808 -3.26111 0.0840288 0.0561132 -0.0356884
411 1 0.132648 0.245688 0.0290517 2.21569 -3.23434 0.0459264 -0.018521 0.0264318
339 1 0.20673 0.209357 0.00687958 9.21098 -3.31025 0.107743 -0.086753 -0.179914
340 1 0.204077 0.231335 0.0285259 10.5493 -3.32018 -0.157673 -0.0550112 0.0292051
344 1 0.238834 0.231465 0.0101304 0.327111 -3.31197 -0.179633 0.139782 -0.00787592
1941 1 0.231427 0.207228 0.0308133 7.43161 -3.31439 0.437002 0.15642 0.104799
343 1 0.267073 0.208693 0.0123601 0.106138 -3.32881 -0.135643 0.0298506 -0.0223102
348 1 0.295347 0.232418 0.0161497 0.234296 -3.32722 0.178998 0.088385 -0.00103428
1942 1 0.261181 0.231063 0.0354894 0.404639 -3.33638 0.159829 -0.0111333 -0.176377
1945 1 0.291917 0.208961 0.0366495 0.182371 -3.33194 -0.126945 -0.196221 0.128548
347 1 0.324727 0.2086 0.0182081 0.190302 -3.35419 0.230215 0.292271 -0.104265
349 1 0.359659 0.21061 0.999716 0.14724 -3.34629 -0.157808 -0.164513 0.0879664
352 1 0.355456 0.233078 0.023349 0.182948 -3.35647 0.0696496 0.0140766 -0.0641677
1949 1 0.349609 0.209179 0.0439237 0.19074 -3.33829 0.15793 0.0779873 -0.281702
1946 1 0.320858 0.232327 0.0400682 0.252312 -3.33282 0.100214 -0.077463 0.224424
355 1 0.417318 0.211072 0.0086701 0.362177 -3.29867 0.0782669 0.0529288 -0.398943
351 1 0.384144 0.209759 0.0247621 0.32771 -3.34352 -0.262333 -0.0286632 0.429265
356 1 0.388397 0.234073 0.00444442 0.195272 -3.33514 0.192424 0.17264 0.0296709
1954 1 0.41356 0.234128 0.030856 0.214613 -3.35895 -0.0475515 0.0285188 -0.0394696
360 1 0.447439 0.235041 0.0129857 0.276466 -3.34998 -0.00150786 -0.11991 0.0565511
359 1 0.476124 0.209416 0.0171023 6.12109 -3.32303 -0.166811 0.0370018 -0.169578
1957 1 0.439871 0.20898 0.0335122 0.270356 -3.33007 0.325229 0.0896764 -0.0217877
1958 1 0.472433 0.231661 0.0387392 0.475172 -3.3696 -0.169012 0.335771 -0.161537
1961 1 0.499465 0.206108 0.0410687 0.999705 -3.31574 -0.0676204 0.216916 0.0733358
364 1 0.507843 0.232232 0.0209982 7.1944 -3.34822 -0.114383 0.10421 0.226328
363 1 0.525424 0.203484 0.0187734 5.56913 -3.26105 0.0459751 0.20375 -0.0302154
368 1 0.553478 0.225099 0.0222421 6.03323 -3.27885 -0.306454 -0.229139 0.0717476
362 1 0.526524 0.225789 0.994403 7.42338 -3.36567 0.0220211 -0.0601415 0.299431
367 1 0.55842 0.204124 0.999099 0.290396 -3.27957 -0.228629 0.13857 0.03884
371 1 0.614809 0.205514 0.0045699 0.658101 -3.31968 0.0877178 0.139466 -0.0826505
372 1 0.584308 0.227335 0.00239177 0.649691 -3.24098 0.637326 -0.241069 -0.279911
1969 1 0.58477 0.201984 0.026109 0.901443 -3.33886 0.13571 -0.0800591 -0.0666322
1970 1 0.609996 0.227238 0.0275952 6.32446 -3.20549 0.0235394 -0.249877 -0.0985867
375 1 0.67387 0.207177 0.0108246 6.77078 -3.30533 -0.421599 -0.0973808 -0.236325
376 1 0.644351 0.229013 0.00675723 6.2648 -3.3005 -0.106778 -0.152627 0.0666794
1973 1 0.637323 0.205566 0.0299818 9.1793 -3.23328 0.299161 0.0873169 -0.00298087
1974 1 0.671901 0.215336 0.0414406 8.43327 -3.3007 0.111084 0.338675 0.118616
455 1 0.676762 0.241058 0.0194954 7.18055 -3.27496 -0.0608801 -0.145418 0.00700344
2053 1 0.643244 0.241769 0.0361554 5.93 -3.30193 0.134093 0.0919016 -0.0164387
380 1 0.704868 0.216655 0.0255587 5.04219 -3.23611 0.0817794 -0.0843502 0.380037
378 1 0.736904 0.213673 0.00998372 0.443171 -3.29376 0.251529 0.0897001 -0.0964056
459 1 0.732362 0.239585 0.0298932 6.50202 -3.33369 0.0858342 0.035886 -0.134482
457 1 0.710541 0.239946 0.00340626 9.35104 -3.26799 -0.180457 0.117394 0.035137
384 1 0.762227 0.21582 0.0338923 0.286469 -3.34815 -0.154652 -0.173078 0.184067
388 1 0.795318 0.215287 0.0169727 0.207445 -3.33056 -0.096913 -0.144808 -0.0705691
463 1 0.790435 0.239771 0.0365582 0.12091 -3.32288 0.00817159 -0.0714252 0.19872
461 1 0.765649 0.238334 0.0119193 6.51955 -3.29806 -0.213181 -0.00780929 0.210292
392 1 0.854693 0.214768 0.0235153 0.266575 -3.3552 -0.447809 -0.0490132 0.0645843
467 1 0.824026 0.239048 0.0189598 0.0462025 -3.36744 0.0532321 -0.0392805 0.0855423
1986 1 0.819924 0.215043 0.0414268 0.0890564 -3.34478 0.106701 -0.0252436 -0.280043