ITEM: TIMESTEP
16000
ITEM: NUMBER OF ATOMS
32000
ITEM: BOX BOUNDS pp pp pp
6.4768768117551447e+00 7.4523123188239694e+01
-2.3794261239490879e+00 8.3379426123943261e+01
-5.3991192792771230e+00 8.6399119279273322e+01
ITEM: ATOMS id type xs ys zs c_csym c_peratom fx fy fz
4 1 0.030407 0.0257081 0.0466677 0.217384 -3.3431 0.126974 0.015096 -0.286903
2 1 0.0386516 0.0251715 0.00230967 0.237622 -3.33617 -0.0198455 0.0456182 0.0606932
8 1 0.0630322 0.0252793 0.0270944 0.234828 -3.33178 -0.0281689 0.146846 0.0184393
12 1 0.095314 0.0240369 0.00830928 0.241781 -3.33226 -0.0796202 0.382088 -0.00124973
1610 1 0.119356 0.0251892 0.0335036 0.165023 -3.35501 -0.109978 0.0787523 -0.0575988
1689 1 0.0910601 0.0498808 0.0288466 0.205386 -3.32007 0.0392508 -0.021342 0.352063
87 1 0.0671492 0.0496328 0.00532981 0.141219 -3.32454 -0.0191467 -0.132248 -0.25981
91 1 0.123427 0.0489398 0.0115993 0.0926064 -3.32942 0.242706 -0.0827508 -0.106203
16 1 0.152153 0.0243926 0.0147403 0.0620145 -3.36198 -0.0572568 0.064965 -0.0943067
1614 1 0.177381 0.0243819 0.0391055 0.254329 -3.32977 -0.196166 0.206839 0.00962769
95 1 0.180482 0.0480845 0.0176141 0.202416 -3.32743 0.134135 0.366553 0.109398
1693 1 0.147543 0.0488837 0.0361985 0.0713656 -3.35169 0.107458 0.149349 0.035181
20 1 0.208897 0.0256307 0.0198744 0.235473 -3.318 0.131279 -0.342656 -0.0588762
1618 1 0.232376 0.0243311 0.0447191 0.203555 -3.32958 0.0287102 -0.0753663 -0.0951607
99 1 0.237245 0.0480921 0.0225981 0.323139 -3.33535 0.128737 0.332724 -0.0547234
1697 1 0.205738 0.0489166 0.0425145 0.174417 -3.35451 -0.225533 0.177917 -0.0423041
18 1 0.242119 0.0251744 0.000926639 0.185942 -3.33302 -0.126998 -0.0271581 -0.152988
24 1 0.265617 0.0248538 0.0256388 0.385442 -3.3292 0.0202595 0.0393005 -0.323375
103 1 0.296479 0.0494952 0.0253148 6.92669 -3.3341 -0.129497 0.163471 0.288623
101 1 0.271672 0.0500078 0.00279068 6.78772 -3.33873 0.0622318 -0.130778 -0.174928
22 1 0.298772 0.025041 0.00406733 6.98675 -3.31743 -0.206108 0.231091 0.0798528
23 1 0.29402 0.000920265 0.0259335 0.224157 -3.3239 -0.0815548 0.117011 0.337595
28 1 0.322772 0.0262944 0.0283002 6.70798 -3.31014 -0.032318 -0.106609 0.108826
32 1 0.365011 0.0331248 0.0245591 1.17296 -3.2442 -0.534545 0.0744859 -0.145331
26 1 0.339642 0.0316396 0.000816672 1.09094 -3.2942 0.0753939 0.158208 -0.124493
25 1 0.324979 0.00147684 0.00628435 5.41964 -3.28421 0.200971 -0.150265 -0.109065
27 1 0.349722 0.00293734 0.0295446 5.80158 -3.30727 -0.126699 -0.127784 -0.172781
31 1 0.390257 0.00867004 0.021973 2.67098 -3.32679 -0.0323084 0.189021 0.1174
36 1 0.404961 0.0393574 0.0217396 8.6292 -3.1731 0.055464 -0.363912 -0.0672849
35 1 0.432677 0.0128025 0.0172711 4.9592 -3.35726 0.0302057 0.1138 -0.154697
1634 1 0.431763 0.0351906 0.0418086 1.02505 -3.17929 -0.0756847 0.139327 0.211397
1633 1 0.416466 0.00793803 0.045854 0.770675 -3.27471 -0.706836 -0.12559 -0.00725635
40 1 0.448608 0.042023 0.011726 9.92945 -3.23544 0.114502 -0.120982 0.193811
39 1 0.476251 0.017228 0.0108294 11.3035 -3.32976 -0.0545702 -0.121991 0.21123
1637 1 0.457774 0.00955047 0.0406355 0.468878 -3.2725 0.0964853 0.0223834 0.0141358
1638 1 0.473498 0.0376396 0.0379138 5.91134 -3.30268 -0.0799565 0.203365 -0.162083
1641 1 0.499893 0.0123893 0.0376577 7.0696 -3.30486 -0.240611 -0.0807758 0.301808
44 1 0.506284 0.0376021 0.0185592 7.52011 -3.22705 0.0604135 0.0340781 0.130862
43 1 0.52598 0.0101886 0.0165627 7.35715 -3.1828 0.118864 -0.169746 0.0713787
48 1 0.555614 0.0325673 0.0240426 8.81837 -3.28332 -0.129464 -0.0950765 0.204134
1642 1 0.529675 0.0339215 0.046604 1.9164 -3.25244 -0.177916 0.0640622 -0.267002
1645 1 0.550272 0.00715578 0.0458768 5.55118 -3.28305 -0.0508414 -0.167391 -0.00554044
52 1 0.588746 0.0211044 0.0124509 7.21966 -3.18789 -0.309629 -0.196971 0.00931415
1650 1 0.613796 0.0252871 0.0346981 8.41085 -3.13816 0.0842921 0.172761 0.240498
47 1 0.563424 0.996841 0.0194715 8.3063 -3.2603 -0.00412439 0.354654 -0.0767783
1649 1 0.591978 0.999217 0.0418288 2.58251 -3.22138 -0.0627878 -0.344972 0.00355919
56 1 0.633987 0.016823 0.0124987 6.07556 -3.20545 -0.278574 -0.133971 -0.381414
135 1 0.654785 0.0434251 0.0137956 6.43913 -3.29622 0.352599 0.300509 0.229418
1654 1 0.654007 0.0232263 0.0388302 6.43545 -3.35423 0.351203 -0.0413078 -0.0187268
55 1 0.662352 0.995238 0.0187385 0.339273 -3.30807 -0.0138614 0.0236107 -0.0402046
1653 1 0.630301 0.9943 0.0396992 10.4607 -3.2379 -0.0333343 0.369092 -0.012007
60 1 0.686359 0.0218859 0.0175934 0.517275 -3.32258 0.0821749 0.00163687 -0.0259868
1657 1 0.688221 0.000971074 0.0423322 0.271443 -3.29659 -0.342703 0.0244991 0.101283
59 1 0.717806 0.000951826 0.0218551 0.330804 -3.26953 0.138913 -0.0468273 -0.18352
64 1 0.74369 0.0255719 0.0200052 4.43335 -3.32809 -0.0232176 0.186042 -0.180656
61 1 0.746218 0.00132287 0.998193 0.874173 -3.33319 -0.00652238 -0.17995 0.120759
68 1 0.800833 0.0268969 0.0216786 6.79433 -3.26511 -0.10597 -0.0144006 0.047067
62 1 0.773709 0.0255411 0.997936 0.294364 -3.34278 -0.13121 -0.0524949 0.124478
63 1 0.774037 0.00485757 0.0245287 5.58107 -3.26361 0.159843 -0.298897 0.106164
72 1 0.857263 0.0245489 0.0278695 0.20494 -3.33905 -0.115577 -0.0826212 -0.261278
67 1 0.825495 0.000155064 0.0266289 5.27475 -3.33876 0.058595 0.173273 -0.130919
1669 1 0.852791 0.000882308 0.0498621 0.328084 -3.33136 -0.0286376 0.0513204 -0.0176223
69 1 0.859123 0.998972 0.00742803 0.553003 -3.34374 -0.256262 0.44028 -0.0414352
71 1 0.885973 -0.000274639 0.0316641 0.234067 -3.32626 -0.26261 0.239474 0.115091
76 1 0.914493 0.0234475 0.034497 0.47433 -3.34255 -0.122346 0.35144 -0.237155
70 1 0.88764 0.0232048 0.00857274 0.412339 -3.34063 0.368993 0.107954 -0.0902552
73 1 0.917124 0.000690347 0.012326 0.129613 -3.32896 0.114243 0.0178733 -0.0492468
74 1 0.946193 0.0256169 0.014782 0.371445 -3.35001 0.279505 -0.273466 -0.0234712
75 1 0.943521 0.00122914 0.0375083 0.146962 -3.33777 0.15986 0.0341938 -0.0372249
80 1 0.972753 0.025987 0.0395971 0.173412 -3.36673 -0.07606 -0.00687915 0.0320999
78 1 0.00603828 0.0258984 0.0214935 0.117622 -3.35258 -0.0982365 -0.0519513 0.0643099
77 1 0.977545 0.0017656 0.0187213 0.245934 -3.36954 -0.16466 -0.0396062 0.121975
79 1 0.0013438 0.00224986 0.0444383 0.284536 -3.34832 0.257357 -0.172393 -0.0466198
83 1 0.058488 0.0506338 0.0468162 0.557829 -3.34756 -0.168615 0.113789 0.282882
84 1 0.0289636 0.0743484 0.0449346 0.0973072 -3.36268 0.171368 0.0121064 0.0538776
82 1 0.0624633 0.0746091 0.0252862 0.258929 -3.3413 -0.054756 -0.0322752 0.364039
81 1 0.0340458 0.0492 0.0224954 0.35962 -3.33917 -0.141025 0.183572 0.363628
88 1 0.0856697 0.074909 0.0512758 0.0906411 -3.36348 0.184165 0.00718053 -0.173028
92 1 0.0951755 0.0737739 0.00779688 0.101141 -3.31151 -0.0739399 0.00611825 -0.153748
171 1 0.123541 0.0962088 0.0103941 0.344867 -3.34301 0.250794 0.405442 0.010255
1690 1 0.119494 0.073957 0.0321833 0.151381 -3.35291 -0.0611175 -0.00585315 0.443969
96 1 0.152126 0.0726946 0.0144868 0.0914344 -3.3403 0.14664 0.0939736 -0.103744
1694 1 0.176766 0.0735104 0.0391444 0.0394855 -3.36582 0.0465293 -0.0617071 -0.00472963
175 1 0.18092 0.0974235 0.0172384 0.102305 -3.34723 0.0345095 0.0542519 0.066085
1773 1 0.1484 0.0977264 0.0364383 0.0708256 -3.36354 -0.106964 0.0391636 -0.12797
100 1 0.209896 0.0732772 0.0211281 0.371062 -3.3314 -0.287963 -0.243612 -0.378909
1777 1 0.205353 0.0988981 0.0420034 0.438722 -3.344 0.067014 -0.225585 0.0447488
98 1 0.243592 0.0726337 1.00077 8.09017 -3.32746 -0.0936118 0.106382 -0.189655
179 1 0.23891 0.095533 0.0225526 7.26849 -3.30904 0.0540504 0.62562 0.0635643
177 1 0.214389 0.0967421 0.998415 7.28506 -3.33955 0.239742 -0.0546713 -0.0556056
1698 1 0.233193 0.0731876 0.0449627 0.177934 -3.33122 0.155335 -0.0236643 0.208362
104 1 0.267089 0.073811 0.0249434 6.76178 -3.30254 0.286121 -0.393747 -0.0422366
108 1 0.311177 0.0804005 0.0200429 0.498009 -3.30226 -0.359691 0.245809 0.0780206
105 1 0.313146 0.0571673 0.996497 0.4535 -3.30516 0.069573 0.0960246 0.155848
107 1 0.338783 0.0580147 0.0199347 1.24496 -3.32199 0.0199024 -0.124048 0.183334
112 1 0.351872 0.0899065 0.0170553 6.5104 -3.30325 -0.125883 -0.0299355 -0.0665982
1710 1 0.375346 0.0888025 0.0413019 7.03953 -3.31262 0.0759726 -0.0268143 -0.157642
1706 1 0.33356 0.0812011 0.0451207 0.304131 -3.29622 -0.0196499 -0.29986 -0.224882
111 1 0.379587 0.0658255 0.0160463 7.21656 -3.36108 -0.071289 -0.0565093 0.230595
115 1 0.418322 0.0636059 0.00933931 6.77305 -3.12828 0.0449678 0.0895572 -0.000153178
1713 1 0.403403 0.0649396 0.0410182 6.54565 -3.36769 0.0250373 -0.0911636 -0.0311621
116 1 0.408958 0.0917049 0.0208226 6.98592 -3.28802 -0.0357387 -0.0751968 -0.0868169
110 1 0.382591 0.0905331 0.99575 6.70596 -3.35401 0.171879 -0.021107 -0.137761
119 1 0.477845 0.0621262 0.0175915 6.08623 -3.1825 -0.0740544 0.172048 -0.128934
120 1 0.448004 0.0840097 0.0122431 9.08601 -3.24993 0.526549 -0.231011 0.522375
124 1 0.506204 0.0836811 0.0233231 6.9109 -3.27038 -0.0371834 0.161851 0.0508499
1717 1 0.444844 0.0618899 0.0339712 9.26828 -3.2037 -0.0785057 0.251729 0.0912755
1718 1 0.472621 0.0832461 0.0415472 7.84461 -3.2676 0.185816 -0.21976 -0.0454201
1721 1 0.502108 0.0595492 0.0436708 0.247882 -3.26292 0.321944 -0.157831 -0.178231
123 1 0.533958 0.059756 0.0235804 5.55237 -3.29038 0.13627 -0.0704679 0.256968
128 1 0.538511 0.0846561 0.00476551 0.638749 -3.30897 -0.089132 0.00473979 -0.151079
1722 1 0.533009 0.0816963 0.0486456 5.76107 -3.31596 -0.369005 -0.155784 -0.0663665
127 1 0.569745 0.0581034 0.00798953 5.70156 -3.23654 -0.0749753 0.146659 -0.0216957
131 1 0.61085 0.0461513 0.0107682 2.68357 -3.16822 0.141615 -0.106778 -0.160777
132 1 0.594779 0.0829706 0.00995578 2.61442 -3.29225 0.149503 -0.0256519 0.358137
1726 1 0.563347 0.0816021 0.0295933 1.03895 -3.29994 -0.0193962 0.0416401 0.0178635
1729 1 0.590285 0.0556241 0.0325387 5.78727 -3.23086 0.101734 0.0653148 0.529175
1730 1 0.614826 0.0816618 0.0393148 5.52018 -3.29404 -0.317389 0.0616103 -0.21987
136 1 0.63456 0.0714427 0.0147841 2.94264 -3.27393 -0.0350597 0.144572 -0.0905356
1733 1 0.634143 0.0535044 0.0396966 6.5907 -3.30535 -0.0635495 -0.0611542 -0.118903
1734 1 0.664443 0.076923 0.0410028 6.25565 -3.27266 -0.0914958 -0.133626 -0.329564
1737 1 0.68366 0.0472713 0.0367356 6.79475 -3.30619 -0.152395 0.136304 0.140816
140 1 0.683272 0.0697889 0.0142143 6.05882 -3.32312 -0.0570853 -0.0211939 0.119518
139 1 0.714068 0.0479662 0.0156264 6.04667 -3.31862 0.0809231 -0.116324 0.0918021
144 1 0.741545 0.0734339 0.0155654 6.32649 -3.29772 -0.131989 -0.103945 0.0785225
219 1 0.709371 0.095848 0.0147538 3.75545 -3.32977 -0.294345 -0.030549 -0.179353
1738 1 0.714863 0.0687267 0.0390487 9.00946 -3.29631 0.0140611 -0.0117141 0.112537
143 1 0.770507 0.0497302 0.0190397 5.03461 -3.31081 -0.146143 0.01708 -0.151897
148 1 0.798865 0.0728729 0.020187 0.123692 -3.34758 0.207648 -0.029729 -0.0366692
145 1 0.80272 0.0489718 0.998486 0.166567 -3.34987 -0.125263 0.0169414 0.0620434
147 1 0.829841 0.0494067 0.0223092 0.514086 -3.3363 -0.0938521 0.0865377 0.277504
152 1 0.858696 0.0721871 0.0252552 0.270942 -3.34452 -0.240464 0.0877621 0.230709
1746 1 0.825156 0.0723967 0.0444891 0.258261 -3.3586 0.0382542 -0.0222954 0.00444703
149 1 0.8626 0.0477865 0.00375256 0.487189 -3.31658 -0.396563 -0.0217854 0.0158288
229 1 0.861672 0.095221 0.00366039 0.439344 -3.35778 -0.17965 0.118475 -0.140461
1749 1 0.854519 0.0491723 0.0488766 0.23388 -3.34679 -0.220086 0.0763952 -0.102883
146 1 0.83333 0.0718056 0.00018973 0.377688 -3.33456 -0.323377 0.121755 0.305489
151 1 0.886653 0.048218 0.0290908 0.182918 -3.34552 -0.0108989 -0.11961 0.122711
155 1 0.943694 0.0481341 0.0371108 0.41941 -3.35399 -0.0923065 0.239144 -0.142757
156 1 0.915174 0.0721494 0.032212 0.234424 -3.35793 -0.233509 0.164271 0.113763
150 1 0.890702 0.0707875 0.00677699 0.521551 -3.32392 -0.0447474 0.474229 -0.0774534
153 1 0.918979 0.0481685 0.0102661 0.219236 -3.31511 -0.328132 -0.145112 0.102115
233 1 0.917215 0.0974772 0.00971945 0.332458 -3.33766 -0.0864602 -0.492296 0.203663
154 1 0.946362 0.072521 0.0138306 0.157832 -3.33778 0.0578758 0.165868 -0.0812913
159 1 1.00114 0.0511762 0.042677 0.34889 -3.35518 -0.15601 -0.223936 -0.215009
160 1 0.969864 0.0740578 0.0398353 0.437189 -3.35201 0.202229 -0.369023 0.00376915
157 1 0.976421 0.0504517 0.0171331 0.368382 -3.34828 -0.117551 -0.275638 0.257792
158 1 0.00467193 0.0736839 0.0196608 0.14726 -3.34027 0.00138348 -0.0693183 0.15352
237 1 0.97526 0.0964205 0.0173946 0.200059 -3.35043 -0.182836 0.12618 -0.266335
161 1 0.0332348 0.0974343 0.0236216 0.282 -3.35465 -0.115119 0.183073 -0.283708
163 1 0.0573912 0.0993552 0.0475955 0.197279 -3.36508 0.0279068 -0.112331 0.193297
164 1 0.0272236 0.121966 0.044811 0.102122 -3.36114 0.00175307 -0.124529 -0.0912922
162 1 0.0609567 0.122641 0.0254633 0.197065 -3.34664 -0.0166976 -0.319026 0.115444
243 1 0.0553745 0.146055 0.0466173 0.161241 -3.3277 0.169082 -0.083733 0.189784
241 1 0.0308207 0.145076 0.0223632 0.0621258 -3.34732 -0.094924 -0.0756956 -0.20276
168 1 0.086572 0.123261 0.0508311 0.198622 -3.35798 -0.262072 -0.202626 0.00728605
167 1 0.0910952 0.0987331 0.0298236 0.250112 -3.35508 -0.128103 -0.181671 -0.0361459
172 1 0.119328 0.121939 0.0322038 0.0665947 -3.35356 0.00490772 -0.0638403 0.106525
247 1 0.114006 0.146298 0.0537392 0.0529736 -3.35588 0.195467 -0.0446032 0.0245473
249 1 0.123228 0.144776 0.00991924 0.145095 -3.3414 -0.126909 0.104404 0.0331851
245 1 0.0895059 0.146145 0.0283115 0.147624 -3.33191 0.040163 -0.185537 -0.0469108
1769 1 0.115055 0.0985923 0.0552461 0.129715 -3.35853 0.0124419 -0.0611879 -0.2415
176 1 0.152126 0.121171 0.0143144 0.152422 -3.33961 0.143267 -0.140897 -0.0852394
255 1 0.182034 0.144578 0.0175216 6.89023 -3.37292 -0.00865877 0.0892774 -0.140332
251 1 0.147619 0.145574 0.0353616 0.0674704 -3.32732 -0.125486 0.0935285 -0.0815977
1774 1 0.17661 0.122262 0.039821 0.261252 -3.32585 0.0873005 -0.203371 -0.255749
180 1 0.211771 0.121243 0.0197483 7.36953 -3.37094 -0.0959233 -0.0648621 0.0253253
259 1 0.224806 0.152119 0.0154306 0.236996 -3.27998 0.136217 -0.196191 0.0162594
1778 1 0.236027 0.121657 0.0445587 7.27313 -3.36421 -0.14374 -0.179265 -0.00940353
1857 1 0.206494 0.145424 0.0422523 6.49886 -3.35711 0.148112 -0.0546582 0.0390667
184 1 0.253137 0.128129 0.0167043 0.136389 -3.32786 -0.075398 -0.108585 -0.0235125
183 1 0.28165 0.10408 0.01882 0.23861 -3.33082 -0.0949003 0.024083 -0.0812216
188 1 0.29433 0.136354 0.0140167 7.27739 -3.33354 -0.012062 0.141472 -0.144298
1782 1 0.277459 0.127519 0.0406019 0.333048 -3.29726 0.0689823 -0.0274654 0.161785
1785 1 0.306247 0.104658 0.0422015 0.311712 -3.31863 0.0308516 -0.0586268 -0.0263536
1861 1 0.250136 0.151929 0.0395629 0.180932 -3.28084 -0.0401088 -0.160387 0.0360902
1789 1 0.347548 0.112378 0.0399594 7.45617 -3.34502 -0.16336 0.0687253 -0.0733105
187 1 0.322661 0.113434 0.0136038 6.88369 -3.34094 0.141199 -0.160988 0.287776
192 1 0.352905 0.136976 0.0193573 0.290388 -3.33079 0.0324315 0.147996 -0.0589112
1786 1 0.320243 0.136167 0.0375918 7.47348 -3.3462 -0.0943753 -0.0274147 0.140815
195 1 0.438516 0.11529 0.0251482 6.91174 -3.3184 -0.15553 -0.113235 -0.0902581
191 1 0.381022 0.113426 0.0210634 0.346694 -3.29578 -0.129438 0.407442 -0.0907413
196 1 0.409999 0.138307 0.0263024 0.392612 -3.33604 0.0898895 0.139636 -0.112136
193 1 0.411208 0.116051 1.00016 6.84125 -3.31686 -0.0916331 -0.0327897 -0.0266817
190 1 0.386384 0.141222 0.00114996 1.43345 -3.30942 -0.0287267 -0.228575 0.242459
1790 1 0.376974 0.136476 0.0448365 0.11058 -3.31958 0.18073 -0.142145 0.0180098
194 1 0.439858 0.139271 0.00430658 6.36856 -3.34801 0.0564251 0.108964 0.1501
199 1 0.477184 0.106649 0.0226037 7.11989 -3.30194 0.049297 0.204817 -0.60045
200 1 0.466804 0.138522 0.030967 7.68177 -3.33677 -0.158578 0.0801468 -0.0410843
204 1 0.480181 0.131364 0.000306245 7.82697 -3.32149 -0.193613 0.166437 0.153169
203 1 0.507963 0.107626 0.0024091 6.91993 -3.31084 0.0219068 0.00101552 0.106253
1805 1 0.53242 0.107596 0.0278482 0.3053 -3.29771 0.250605 -0.167844 -0.118467
208 1 0.534794 0.132856 0.00581619 0.329978 -3.31721 -0.097081 -0.247009 -0.395477
1802 1 0.504892 0.131361 0.026065 7.25039 -3.30112 -0.0974507 0.00972197 -0.1809
1806 1 0.558546 0.131394 0.0304248 0.294142 -3.32452 0.272314 0.0183797 0.100281
207 1 0.565638 0.10779 0.00830535 0.260203 -3.33205 -0.218582 0.0840647 0.0128729
212 1 0.592411 0.131296 0.0117524 0.86217 -3.32133 0.0607064 0.0177986 -0.119798
211 1 0.620809 0.10563 0.0152384 5.8881 -3.2967 0.0435748 0.084659 0.149297
1809 1 0.587344 0.105879 0.034082 0.281873 -3.31985 -0.0518291 0.231325 0.0606913
1810 1 0.61416 0.129456 0.0379484 0.625728 -3.28578 0.06821 0.261829 -0.145306
215 1 0.660126 0.0964376 0.0156695 6.95838 -3.25942 0.066437 -0.130716 0.210818
216 1 0.64698 0.128397 0.0210924 9.20496 -3.27751 0.132455 -0.0964166 -0.0863054
220 1 0.681973 0.120976 0.00736353 8.62675 -3.23108 0.0519497 0.291027 0.364165
224 1 0.739135 0.120768 0.0144654 0.377682 -3.33188 0.257256 -0.0502217 -0.253797
1821 1 0.734678 0.09643 0.0365838 5.39881 -3.24046 0.284648 0.069839 0.000322232
1817 1 0.694413 0.0986112 0.04472 6.80784 -3.2311 -0.0723783 -0.339235 0.137539
1818 1 0.706817 0.123456 0.0313209 6.30598 -3.24802 -0.0730073 0.221576 0.121035
223 1 0.770669 0.0970642 0.0159049 0.749549 -3.33003 -0.361701 -0.0503517 0.314206
228 1 0.798622 0.119453 0.0178734 0.340904 -3.31514 -0.0966841 0.342918 0.455575
1822 1 0.764117 0.119801 0.037888 0.255845 -3.3627 0.270142 0.163957 -0.108255
1825 1 0.794956 0.0956502 0.0416172 0.191171 -3.34514 -0.190677 0.201371 -0.10583
227 1 0.82822 0.0963398 0.0228587 0.226029 -3.32538 0.0221411 -0.353929 -0.252937
232 1 0.855058 0.119825 0.0242734 0.293643 -3.33562 0.201801 0.272845 0.147554
1826 1 0.822961 0.118891 0.0436418 0.290641 -3.33768 -0.113276 0.524086 0.117367
1829 1 0.852614 0.0971962 0.0480134 0.257618 -3.32524 0.155592 -0.307042 -0.0875931
235 1 0.942112 0.0967249 0.0357589 0.12446 -3.34097 -0.0677679 0.170216 -0.13744
231 1 0.884485 0.0974995 0.0291251 0.481802 -3.36263 0.306912 -0.311343 -0.0239229
236 1 0.913719 0.120735 0.0319714 0.0891128 -3.35359 -0.0761096 0.0444031 0.12804
230 1 0.888766 0.120491 0.00638407 0.142434 -3.31418 -0.100239 -0.0622212 0.0266909
311 1 0.883735 0.144058 0.0271565 0.245898 -3.35589 -0.0201813 0.0211193 0.391291
313 1 0.917176 0.144419 0.0101407 0.171552 -3.33059 -0.167159 -0.0596501 -0.125911
1830 1 0.881116 0.121028 0.0511752 0.226334 -3.33195 -0.0799271 -0.0868313 -0.249709
234 1 0.945374 0.120433 0.0130833 0.0989374 -3.34085 0.190752 -0.0280234 0.208844
239 1 0.99919 0.0973274 0.0417198 0.125817 -3.34759 0.171346 -0.0508587 0.208702
240 1 0.971444 0.1213 0.0389658 0.256421 -3.32318 -0.314934 -0.100447 -0.296105
238 1 0.00336422 0.120715 0.0193371 0.0734061 -3.35806 0.0901252 0.0687805 0.0143254
315 1 0.94247 0.144987 0.0364641 0.428627 -3.35543 -0.272265 -0.119057 -0.264233
317 1 0.973531 0.143813 0.0158641 0.175555 -3.34689 -0.0185656 0.144229 0.0443821
319 1 0.99789 0.14568 0.0409903 0.231185 -3.32965 0.0439386 -0.183836 0.138705
244 1 0.0255015 0.168623 0.044302 0.171414 -3.34319 0.0957068 0.185794 -0.0681262
242 1 0.058964 0.168658 0.0246387 0.0522554 -3.33868 0.0264983 0.174872 0.0281088
321 1 0.0291604 0.192088 0.0209119 0.22271 -3.37243 0.107698 0.148013 0.152892
323 1 0.0539261 0.191843 0.0466154 0.371916 -3.36807 0.0803554 0.205676 0.0239217
248 1 0.0848175 0.169368 0.0498953 0.0981113 -3.34178 -0.116805 0.0791064 -0.00131225
246 1 0.116969 0.169564 0.0303868 0.404289 -3.34404 0.168055 0.0717445 0.150547
327 1 0.112467 0.193443 0.0522614 0.105012 -3.34699 0.0416676 0.0603743 0.0292016
325 1 0.0865902 0.192881 0.0274068 0.151779 -3.34654 0.139448 0.0629378 -0.0549323
30727 1 0.121199 0.194504 0.0103148 2.08225 -3.34591 -0.212045 -0.0924238 -0.15956
256 1 0.17699 0.169464 0.0381617 5.91067 -3.35387 0.0527845 0.151863 0.0536757
250 1 0.151618 0.16995 0.0141317 5.40801 -3.34525 0.175557 -0.137149 -0.0577191
329 1 0.146264 0.194434 0.0348531 1.54695 -3.30675 -0.0225744 -0.287736 -0.0880748
335 1 0.170988 0.198471 0.0116342 5.95028 -3.23045 -0.133449 -0.148403 -0.0115696
260 1 0.197983 0.174899 0.0129856 1.12186 -3.29059 -0.158169 0.171819 -0.0201546
264 1 0.236799 0.184278 0.0106906 7.60519 -3.36541 0.146885 0.0230299 0.0443696
1858 1 0.223509 0.175291 0.0389436 1.17073 -3.2863 -0.150775 -0.0271342 -0.197225
1937 1 0.197307 0.19894 0.0360758 3.05142 -3.26522 -0.140206 -0.27136 -0.0503023
263 1 0.265588 0.159846 0.0117326 7.21793 -3.36435 0.099111 0.179655 0.22443
1862 1 0.263036 0.182822 0.0353115 7.37536 -3.32437 0.151433 -0.100771 -0.213023
268 1 0.296442 0.185256 0.015551 0.359825 -3.33182 -0.0647374 -0.438497 0.206814
1865 1 0.290572 0.159026 0.037261 7.39174 -3.35826 0.211263 0.137827 -0.322914
267 1 0.324525 0.161611 0.0188263 0.181792 -3.3637 -0.0902709 0.0115795 -0.217975
272 1 0.353822 0.185222 0.0234745 0.168119 -3.33803 -0.0362332 0.0594895 -0.231474
1869 1 0.350364 0.160139 0.0434798 0.181704 -3.30744 -0.256656 0.0834391 0.0987583
1866 1 0.321526 0.183455 0.0414479 0.0645687 -3.32925 -0.0496785 -0.0432774 -0.0942769
269 1 0.357245 0.163802 0.999928 0.0997017 -3.32646 -0.151423 0.125562 0.113346
271 1 0.381097 0.16131 0.0255035 0.417601 -3.31545 0.321142 0.181319 -0.375259
273 1 0.415264 0.164544 0.00661164 1.46045 -3.34651 0.0927055 0.0182741 -0.0151
276 1 0.410725 0.186674 0.0293845 0.17065 -3.34929 0.015677 -0.131764 0.14164
270 1 0.385993 0.186901 0.00453608 0.297893 -3.35315 0.140317 0.23766 -0.0302158
275 1 0.439237 0.16292 0.0323652 0.824507 -3.32571 -0.103447 -0.0837455 -0.26089
280 1 0.443879 0.188214 0.0126412 1.76785 -3.29163 -0.0192254 -0.0912118 -0.276007
279 1 0.468601 0.162618 0.0104631 6.27229 -3.31995 -0.184774 -0.15573 0.0530182
284 1 0.498456 0.183362 0.0180122 1.81506 -3.30034 -0.0601106 0.143856 0.0422011
1881 1 0.496262 0.160909 0.0386291 3.57327 -3.28838 -0.305709 -0.105135 -0.0505318
1878 1 0.46706 0.185952 0.0380844 0.518932 -3.31048 0.383755 0.139034 -0.277994
283 1 0.505564 0.156081 0.000596609 5.92799 -3.31573 0.197752 0.205629 0.26138
288 1 0.532895 0.181036 0.00364161 0.367737 -3.33347 0.110043 -0.0328979 0.0145839
1882 1 0.523896 0.183181 0.0439075 1.31384 -3.30904 -0.0757555 -0.0938729 0.126656
1885 1 0.531456 0.156226 0.0256855 1.13804 -3.30568 -0.0539204 0.263166 0.222415
1886 1 0.557807 0.181271 0.0292 0.588969 -3.31175 0.147626 -0.330053 -0.324495
287 1 0.563416 0.156263 0.00770736 0.34218 -3.31582 -0.0525168 0.07727 -0.0876799
291 1 0.618531 0.155416 0.0125016 0.981594 -3.32455 0.339633 0.0907106 -0.012322
292 1 0.589409 0.180849 0.00924734 0.16087 -3.34084 0.033906 -0.0967341 0.108067
1889 1 0.587085 0.155379 0.0321561 0.32913 -3.31504 -0.0452497 -0.0246139 0.189161
1890 1 0.613422 0.178847 0.0360128 0.330036 -3.28863 0.464573 -0.07857 -0.189626
295 1 0.667856 0.153458 0.0115108 6.94513 -3.1639 -0.0978903 0.173529 -0.0131296
296 1 0.644283 0.179658 0.0156808 1.27341 -3.30635 0.0676613 0.174683 -0.236189
293 1 0.64816 0.159385 0.986897 6.90573 -3.16755 -0.0827748 -0.0483684 0.264825
294 1 0.673246 0.181011 0.99431 7.45372 -3.26987 0.387579 0.33581 0.0344395
1901 1 0.734974 0.146168 0.0360003 4.96103 -3.32772 -0.209966 -0.364986 -0.260401
300 1 0.699545 0.179627 0.0190269 10.1073 -3.35032 -0.155221 0.0187511 0.21761
299 1 0.709912 0.146353 0.0105012 6.04781 -3.29848 -0.164198 -0.243138 0.0224329
304 1 0.738456 0.16817 0.0121748 5.17247 -3.28722 0.131968 0.0427072 0.273015
303 1 0.767653 0.14422 0.0148691 0.32543 -3.35016 0.00577501 -0.0881947 0.201115
1905 1 0.793074 0.143563 0.0398671 0.156396 -3.36771 0.124478 -0.172043 0.0847323
308 1 0.795414 0.167676 0.0179749 0.191787 -3.31898 -0.0234397 0.153643 0.0482228
1902 1 0.764209 0.167189 0.0378114 0.409528 -3.3289 -0.10293 0.356113 0.0134545
383 1 0.767071 0.191579 0.0144208 0.237192 -3.35274 -0.159239 0.271996 0.249562
1985 1 0.791796 0.191807 0.0393118 0.252412 -3.33987 -0.206781 0.183373 0.101034
1906 1 0.820414 0.168504 0.0422794 0.310202 -3.33804 0.321542 -0.257904 0.0163273
307 1 0.825819 0.143984 0.0214159 0.0629392 -3.34724 0.11286 -0.0223894 0.0267514
312 1 0.854471 0.168376 0.0243744 0.106452 -3.36061 -0.180747 0.0173806 -0.0377843
1909 1 0.850549 0.144034 0.04582 0.232934 -3.38443 0.107884 0.0933848 0.167718
387 1 0.823596 0.193007 0.0207667 0.196255 -3.3345 0.247381 -0.203318 -0.0198294
1989 1 0.849709 0.192719 0.0453664 0.0537374 -3.31747 0.0436788 -0.137558 -0.0962181
1910 1 0.879391 0.168237 0.0494706 0.114018 -3.37203 0.0242961 -0.0520438 0.0334846
310 1 0.886697 0.168251 0.00601713 0.0928595 -3.36068 0.138184 0.0909401 -0.231476
316 1 0.912322 0.168304 0.0316825 0.069513 -3.35134 -0.158829 -0.123293 0.15713
391 1 0.882068 0.1924 0.0276075 0.0844813 -3.34012 0.0954094 -0.00868073 -0.184066
393 1 0.915518 0.191975 0.00952472 0.244487 -3.34101 -0.250129 -0.201581 -0.20832
314 1 0.944053 0.167604 0.0137694 0.279976 -3.34429 0.263637 0.212759 -0.283441
320 1 0.969367 0.169173 0.0385725 0.153089 -3.36498 0.00620986 0.109607 -0.0331424
318 1 0.00113207 0.167642 0.0187117 0.216253 -3.34294 -0.0159038 0.257963 -0.0215375
395 1 0.939742 0.192544 0.0352128 0.150372 -3.33695 0.211181 -0.177413 -0.11159
399 1 0.998449 0.193248 0.041224 0.328766 -3.36313 -0.210789 -0.188598 -0.109699
397 1 0.972745 0.191754 0.0153622 0.100848 -3.37712 -0.159163 -0.0850863 0.0935602
322 1 0.0580862 0.216872 0.0250068 0.60967 -3.31516 0.0273133 -0.140091 -0.346976
324 1 0.0270221 0.217085 0.0436384 0.240902 -3.32469 -0.332773 -0.0893916 -0.0511504
403 1 0.0550079 0.241342 0.045755 0.765861 -3.31357 -0.0949653 0.163261 -0.0384412
401 1 0.0292527 0.239733 0.0211724 2.55515 -3.27698 0.0693634 0.0364295 0.0889381
328 1 0.082183 0.216896 0.0496171 0.235591 -3.32536 0.310522 -0.0964772 -0.0835202
326 1 0.114215 0.218305 0.0302363 0.255297 -3.35006 -0.0203575 -0.00744991 -0.0896801
405 1 0.084659 0.242332 0.0258409 0.3698 -3.34296 -0.103108 0.137978 0.0431664
407 1 0.111336 0.241578 0.0515388 0.244647 -3.33579 -0.284437 0.0147524 -0.0703138
409 1 0.115252 0.24452 0.00624623 7.30335 -3.29848 -0.0101077 -0.160382 0.251675
336 1 0.16984 0.22163 0.0339571 7.21447 -3.25643 0.052262 -0.113798 -0.314383
330 1 0.145029 0.221975 0.0095528 7.11246 -3.29471 -0.0965906 0.0871756 -0.124691
411 1 0.14123 0.244059 0.032125 7.19812 -3.26838 -0.305201 -0.152288 -0.330182
339 1 0.207148 0.209621 0.00854653 7.8692 -3.30851 0.335022 -0.139376 0.1082
340 1 0.208362 0.231256 0.0316856 9.18846 -3.26995 -0.191623 -0.158797 -0.25671
344 1 0.238325 0.23125 0.0121762 0.220931 -3.31084 0.158644 0.0502341 -0.228248
1941 1 0.235842 0.20634 0.0332043 7.55354 -3.31994 -0.1024 0.172961 -0.0595746
343 1 0.26807 0.207983 0.0144674 0.155737 -3.30036 -0.268006 -0.0445658 -0.213864
348 1 0.296308 0.232175 0.0181179 0.117632 -3.34812 0.242149 0.0269037 -0.0714513
1942 1 0.263839 0.230085 0.0360026 0.20985 -3.31131 0.0959863 0.187868 0.155508
1945 1 0.292463 0.205885 0.0383938 0.265723 -3.32083 0.131257 0.28668 0.205713
347 1 0.3251 0.208898 0.0199913 0.0799775 -3.33089 0.166442 0.128488 0.174234
349 1 0.358801 0.212017 0.00229916 0.272067 -3.34233 -0.0763104 -0.240178 -0.0697608
352 1 0.355239 0.233306 0.0249376 0.0945741 -3.33527 -0.0573328 -0.0589955 0.0245611
346 1 0.32915 0.234424 0.999154 0.120706 -3.36472 0.0700143 -0.0142536 0.0525675
1949 1 0.351272 0.207669 0.0455202 0.0566652 -3.29987 -0.274332 0.034188 0.0424997
1946 1 0.322229 0.230488 0.0425738 0.118319 -3.35313 0.0517803 0.0783128 0.119147
355 1 0.415507 0.21189 0.00934508 0.195348 -3.33496 0.0165914 -0.273706 -0.155209
351 1 0.381905 0.208964 0.0277296 0.427957 -3.31843 0.340568 0.220432 -0.300378
356 1 0.387781 0.234839 0.00697493 0.126951 -3.32862 0.0504778 0.0752308 -0.179635
1954 1 0.412749 0.233254 0.0316317 0.19427 -3.31389 -0.252066 0.271466 0.204783
360 1 0.444829 0.234075 0.0137173 0.143889 -3.32073 0.21539 0.136823 -0.0773517
359 1 0.4728 0.20938 0.0165679 0.503379 -3.31255 0.05225 0.0995218 0.0870927
1957 1 0.44031 0.211098 0.0352837 0.348915 -3.31616 -0.0037063 -0.46793 -0.00365739
364 1 0.501696 0.232221 0.0209202 0.242903 -3.311 0.0154389 0.00318369 0.277316
1958 1 0.46947 0.232537 0.0394438 0.0610256 -3.33029 0.0595032 0.168893 0.0127897
1961 1 0.497023 0.208679 0.0429049 0.304901 -3.33937 0.121842 -0.197528 -0.257274
363 1 0.528115 0.206712 0.0231779 0.579522 -3.34104 -0.0696403 0.0362232 0.262822
368 1 0.558412 0.228811 0.0286776 0.101125 -3.353 -0.176062 -0.129886 0.156103
362 1 0.532759 0.23138 0.00294864 0.29063 -3.32906 0.188326 -0.158214 -0.110602
367 1 0.559969 0.205487 0.00593315 0.330256 -3.34416 0.305194 -0.0485039 0.0656785
371 1 0.616749 0.204052 0.0122573 0.0998021 -3.33379 0.253409 0.0747196 -0.0774888
372 1 0.588663 0.228221 0.0098917 0.237693 -3.30858 0.1782 -0.261844 -0.122738
1969 1 0.586464 0.202863 0.0322188 0.337735 -3.33543 -0.0305039 0.382254 0.00399312
1970 1 0.614736 0.226561 0.0351516 0.259756 -3.33299 -0.093603 0.130296 0.203225
375 1 0.671047 0.204432 0.0182641 6.01025 -3.30128 0.375964 -0.262701 -0.123348
376 1 0.646273 0.228407 0.0151555 1.38076 -3.29766 0.0646613 -0.00878711 0.0607317
374 1 0.679284 0.229031 0.99631 6.26557 -3.29222 -0.351614 0.0820986 -0.160542
1973 1 0.640563 0.202886 0.0377712 1.0566 -3.28478 0.260597 0.0174072 0.116441
1974 1 0.673986 0.221698 0.0445885 1.61604 -3.31487 -0.212272 0.0158737 -0.0321475
380 1 0.706358 0.217859 0.0281584 6.41082 -3.28962 -0.0663133 -0.119627 -0.330162
377 1 0.703394 0.204019 0.997921 9.3615 -3.31289 0.120833 -0.195643 0.0888314
379 1 0.733632 0.191243 0.0330182 5.29186 -3.33157 0.409558 0.228548 -0.0686003
378 1 0.738263 0.217305 0.0108796 5.27979 -3.30003 0.0375626 -0.179388 0.0425756
459 1 0.734933 0.242524 0.0324783 6.47941 -3.28078 0.0234597 0.101377 -0.251961
384 1 0.763268 0.217912 0.0352451 0.192589 -3.3276 0.0100466 -0.300528 0.0246507
388 1 0.795535 0.217265 0.017858 0.382176 -3.33382 -0.225697 -0.119401 -0.361267
463 1 0.793267 0.241096 0.0380447 0.346537 -3.34739 -0.270699 0.114472 0.139007
461 1 0.764798 0.242387 0.0127043 6.16872 -3.32271 0.172015 -0.0712488 0.150086