ITEM: TIMESTEP
750
ITEM: NUMBER OF ATOMS
32000
ITEM: BOX BOUNDS pp pp pp
3.0005980436592145e-01 8.0699940195628926e+01
-1.1001188984970867e-01 8.1110011889844571e+01
-1.1027418764281549e-01 8.1110274187637359e+01
ITEM: ATOMS id type xs ys zs c_csym c_peratom fx fy fz
4 1 -0.0003811 0.0250355 0.0250823 0.0217832 -3.36631 0.0644934 -0.00389135 -0.0318732
8 1 0.0494878 0.0251676 0.025243 0.0360298 -3.35912 0.0926645 -0.0668219 -0.039485
83 1 0.0245865 0.0499981 0.0250678 0.0195779 -3.36253 0.0622231 0.00485705 -0.0466317
85 1 0.0499121 0.0499585 0.000150714 0.0146455 -3.35232 0.00371356 0.00421795 -0.0269178
1602 1 0.0248997 0.0247804 0.0502762 0.0249123 -3.35345 0.00740293 0.0366554 -0.0556298
1605 1 0.0499929 -0.000157301 0.0501827 0.00915973 -3.36299 -0.0248935 0.0154568 -0.00482884
1681 1 0.000140696 0.0500611 0.0498861 0.0194857 -3.35488 -0.118957 -0.0482508 0.0309118
1685 1 0.0496868 0.0499776 0.04995 0.0172998 -3.35818 0.068221 -0.00139174 0.0056864
12 1 0.100143 0.0252654 0.0251159 0.023716 -3.352 -0.0328919 -0.0368067 -0.0777849
87 1 0.0749408 0.0497195 0.0248235 0.0275991 -3.35992 0.0104698 0.0792172 0.0550149
1606 1 0.0749202 0.025118 0.0498709 0.0168064 -3.36335 0.000660643 -0.0511263 0.0434432
1689 1 0.100214 0.0497982 0.0497768 0.0266903 -3.35937 -0.0688081 0.0302674 0.0658863
13 1 0.149478 1.57946e-05 -0.000277965 0.0568595 -3.35717 0.126895 0.008756 0.0484669
16 1 0.150251 0.0250172 0.0249171 0.0155325 -3.36392 -0.0384041 0.0251923 -0.0583182
91 1 0.125335 0.0502958 0.0248982 0.0262935 -3.36301 -0.0268574 -0.0450191 -0.0305826
1610 1 0.125181 0.0249353 0.0496079 0.0224357 -3.35711 0.0170006 0.0337869 0.117608
1613 1 0.149923 6.87565e-05 0.04978 0.0136396 -3.36096 0.0304371 -0.00328296 0.0782559
1693 1 0.150374 0.0500436 0.0499789 0.028526 -3.35608 -0.0914542 -0.0383785 0.0143311
14 1 0.174909 0.0247444 -0.000234734 0.0234342 -3.35793 0.0104879 0.0178773 0.0277113
15 1 0.175051 -0.00017493 0.0247918 0.0203405 -3.35397 -0.0143997 0.061112 -0.0169616
20 1 0.199813 0.0249821 0.0251387 0.0249347 -3.35209 0.0588429 -0.0416642 -0.114327
95 1 0.174965 0.0498796 0.024855 0.0116407 -3.35667 -0.0114306 0.0164323 -0.0387694
1614 1 0.175008 0.0248092 0.050034 0.0126815 -3.35542 -0.02 0.0044339 0.00772632
1617 1 0.199882 5.403e-05 0.0495629 0.0458117 -3.36531 0.021801 -0.0800052 0.147541
1697 1 0.200248 0.0498109 0.0496874 0.0309101 -3.34977 -0.05743 0.0466923 0.106378
19 1 0.225013 -9.93548e-05 0.0249506 0.0154061 -3.36309 -0.00090736 0.0510209 -0.0370264
24 1 0.249746 0.0252018 0.0247066 0.0274618 -3.36486 0.0521444 -0.0173132 0.0411862
99 1 0.224801 0.0499862 0.0250973 0.0188719 -3.35932 0.0830721 0.0535354 -0.0733157
1618 1 0.225002 0.025084 0.0500373 0.0104672 -3.35687 0.0114017 -0.0511649 -0.0058301
1621 1 0.249762 0.000137791 0.0498293 0.0154427 -3.3547 -0.0578775 0.0107701 0.0596484
1701 1 0.249963 0.0502174 0.0502626 0.0159695 -3.36308 0.0116178 -0.0566003 -0.0970419
22 1 0.275001 0.024937 -0.000139956 0.0220719 -3.36682 0.0209227 0.0501162 0.00224063
23 1 0.275026 0.000272356 0.0256694 0.123699 -3.35064 -0.0733918 -0.00664857 -0.254672
28 1 0.299845 0.0250077 0.0251321 0.0145304 -3.36237 0.0492446 0.0326793 -0.0817758
103 1 0.274988 0.0500893 0.0247759 0.0121336 -3.3684 -0.0143619 0.0267619 0.0173033
105 1 0.300078 0.0500965 -0.000423592 0.0286985 -3.36393 -0.0231375 -0.0312027 0.0962912
1622 1 0.274776 0.0251926 0.0499296 0.017361 -3.34974 -0.0189477 0.0368202 -0.0033816
1705 1 0.299793 0.0502748 0.0498708 0.0195822 -3.35704 0.0700663 -0.0637821 -0.0337892
26 1 0.32482 0.0247349 0.000138325 0.0393051 -3.36632 -0.0365311 0.0325813 -0.0358797
27 1 0.324818 -0.000239711 0.025132 0.0271001 -3.3658 0.0170199 0.0601121 -0.032481
29 1 0.350046 -9.15474e-05 -0.00038727 0.0322033 -3.34954 -0.0474224 0.0727955 0.13006
32 1 0.34962 0.0251944 0.0249174 0.0200657 -3.35957 0.0288879 -0.0575881 -0.0123583
107 1 0.325047 0.0501948 0.0249822 0.0141075 -3.35897 -0.0684561 -0.0646615 -0.00598308
109 1 0.349805 0.0499593 -0.000339035 0.027718 -3.35911 -0.00290567 0.0379045 0.073342
1626 1 0.324924 0.0249905 0.0500377 0.00856149 -3.3545 -0.00774318 0.0631649 -0.0448985
1709 1 0.349764 0.0500995 0.0499874 0.00463876 -3.36662 -0.00277889 -0.0133898 0.0190875
33 1 0.399642 0.000149791 -0.000180499 0.0136253 -3.35985 0.0364783 0.0176251 0.0643352
36 1 0.399653 0.0248965 0.0248258 0.0192774 -3.35628 0.0756742 0.0535138 -0.0123876
111 1 0.374802 0.0498563 0.0250705 0.0151841 -3.36454 0.00289801 0.0753316 -0.0198475
1630 1 0.375054 0.0249369 0.0496894 0.0228427 -3.35144 -0.0676126 0.0872407 0.0771675
1633 1 0.400037 0.000184462 0.0496994 0.00511844 -3.34894 -0.00309225 -0.0511868 0.0184752
1713 1 0.400171 0.0501043 0.0501419 0.0476537 -3.35973 -0.0614738 -0.0353268 -0.146366
34 1 0.424954 0.025068 8.92253e-05 0.0128045 -3.36157 -0.00842305 -0.0383089 -0.0420293
40 1 0.450143 0.0251196 0.0250552 0.0106679 -3.36071 0.0296962 -0.0244003 -0.030158
115 1 0.425066 0.0498747 0.0245631 0.0309636 -3.35407 -0.0149225 0.0162868 0.106775
117 1 0.450091 0.0498971 -0.000342556 0.0380217 -3.35312 -0.0411705 -0.00918949 0.0875617
1634 1 0.424945 0.0249895 0.0494966 0.0284159 -3.36037 0.0288884 -0.00267333 0.0679291
1637 1 0.450311 9.58449e-05 0.0498997 0.00717322 -3.36567 -0.021314 0.0204537 0.0259879
1717 1 0.449614 0.0501158 0.0499152 0.0322823 -3.35852 0.0856249 -0.0671766 0.0371347
38 1 0.475351 0.0253343 0.000217481 0.0595544 -3.36203 -0.105209 -0.113413 0.0158186
39 1 0.475109 0.000100498 0.0251455 0.0103348 -3.3612 0.00325333 0.0125588 -0.0325339
44 1 0.500335 0.0248065 0.0251863 0.0251883 -3.35532 -0.0649588 0.0891697 -0.053053
119 1 0.474633 0.0504448 0.0252685 0.0810128 -3.35822 0.10005 -0.140176 -0.0183743
123 1 0.52532 0.0501369 0.0247619 0.0331913 -3.35911 -0.0286268 -0.0259892 0.0641294
1638 1 0.47553 0.0251401 0.0500252 0.0408809 -3.36771 -0.143671 0.0106952 0.0132726
1642 1 0.525115 0.0248953 0.0498033 0.0170678 -3.35345 0.00393584 0.0652096 0.0829051
1721 1 0.500278 0.0503297 0.0496571 0.0412646 -3.35883 -0.0464605 -0.0811719 0.0676382
46 1 0.574707 0.0250841 -0.00021979 0.0217876 -3.36256 0.0789087 -0.00904148 -0.00340049
47 1 0.575276 -0.000397046 0.0247634 0.0612026 -3.35361 -0.126281 0.14096 0.0264708
48 1 0.549966 0.0251694 0.0250951 0.0216397 -3.36091 0.0849447 -0.0496454 -0.0232584
125 1 0.550223 0.0501728 -0.00035425 0.0351007 -3.35546 -0.0422275 -0.0231383 0.106927
127 1 0.57514 0.0498661 0.0251627 0.0196959 -3.35957 -0.0747512 0.0303477 -0.0346903
1645 1 0.549828 3.77366e-05 0.0500824 0.0171797 -3.36108 0.02856 0.0170723 -0.0517617
1646 1 0.575086 0.0247105 0.0499131 0.0111347 -3.36784 -0.0295852 0.0627474 0.0301154
1725 1 0.549992 0.0500541 0.0501858 0.0108552 -3.35535 0.0166194 -0.0115149 -0.0454568
50 1 0.624906 0.0253277 -0.000374835 0.0413807 -3.35693 0.017179 -0.148837 0.0685474
52 1 0.599807 0.0249866 0.0246513 0.0186643 -3.34899 -0.0135759 -0.0325461 0.0465646
129 1 0.600164 0.0498212 8.0858e-05 0.0290824 -3.35369 -0.0806666 0.0574263 -0.119531
131 1 0.624604 0.0496971 0.0250145 0.036128 -3.357 0.143557 0.127637 -0.00758203
1649 1 0.600009 7.51318e-05 0.049823 0.0108934 -3.34815 0.00756306 -0.0538473 0.0538556
1650 1 0.624828 0.0248456 0.0498621 0.0141754 -3.3572 0.102757 0.0151649 0.0335069
1729 1 0.600306 0.049928 0.0500139 0.029766 -3.35329 -0.145046 -0.0216351 0.0439521
56 1 0.649846 0.0252515 0.0247406 0.0242547 -3.36444 -0.00556044 -0.0808079 0.0708014
135 1 0.67484 0.0498993 0.0251425 0.0178675 -3.35682 0.00978663 0.0430276 -0.0472534
1654 1 0.674966 0.0251495 0.0499627 0.00624347 -3.36394 0.01147 -0.0160258 0.0368603
1733 1 0.649837 0.0500199 0.0502109 0.0118445 -3.3576 -0.0188178 -0.038224 -0.0325043
58 1 0.724905 0.0251338 -6.47102e-05 0.00787891 -3.35496 -0.00746004 0.000590058 -0.0272661
60 1 0.7001 0.0249852 0.0247756 0.0284271 -3.35769 -0.0698747 -0.00278025 0.0805635
137 1 0.699645 0.0500431 0.000141642 0.0228492 -3.35401 0.0942269 0.0691418 -0.0271691
139 1 0.724645 0.0500214 0.0252133 0.0253443 -3.3529 0.0698911 -0.0113214 -0.0808618
1658 1 0.724607 0.0252836 0.05028 0.0499661 -3.35513 0.0321028 -0.0672221 -0.122733
1737 1 0.699802 0.0501587 0.0499821 0.0128203 -3.35529 -0.0122934 -0.0703691 0.0699386
62 1 0.775005 0.0252282 -4.72112e-05 0.0133669 -3.36249 -0.0640821 -0.0164865 -0.0704648
64 1 0.749872 0.0252804 0.0247965 0.012231 -3.36327 -0.0169008 -0.0229749 0.0527297
143 1 0.774756 0.0502365 0.0248232 0.0169834 -3.35559 0.0458346 -0.0150624 0.00849446
1662 1 0.774962 0.0253047 0.0500036 0.0166405 -3.35965 0.021534 -0.0451549 0.00676673
1741 1 0.749983 0.0500676 0.0498379 0.00693063 -3.35134 0.0181404 0.0310725 0.0215777
66 1 0.824736 0.0246758 0.000252156 0.0246912 -3.35268 0.043832 0.0575069 -0.0154491
68 1 0.799442 0.0249733 0.0246702 0.0431371 -3.3571 0.116464 -0.0090955 0.0890646
147 1 0.824934 0.0499107 0.0247371 0.0158692 -3.35782 -0.00434087 0.0126147 0.0217174
1666 1 0.824598 0.0251089 0.0499197 0.0231322 -3.35566 0.0312559 -0.0901773 -0.0414889
1745 1 0.800037 0.0498481 0.0497516 0.0166667 -3.35779 -0.0362722 0.0426731 0.0140727
69 1 0.849699 -0.000145929 0.00011837 0.00953434 -3.35855 0.030877 -0.0427442 0.00814655
71 1 0.87477 -0.000125803 0.0248461 0.0111641 -3.36547 0.0457839 0.0188157 -0.0094873
72 1 0.849849 0.02515 0.0252448 0.0302809 -3.36051 -0.0087276 -0.077684 -0.0360787
149 1 0.849963 0.0499399 0.000244183 0.0100847 -3.35935 0.0104533 0.0167975 -0.0332101
151 1 0.875009 0.0501836 0.0251721 0.0184073 -3.36358 -0.0152399 -0.101001 -0.0209742
1670 1 0.874867 0.0247558 0.0499344 0.0120272 -3.3571 -0.00590397 0.0396585 -0.029046
1749 1 0.849484 0.0498017 0.050222 0.0564546 -3.35243 0.148717 0.0733951 -0.0667605
74 1 0.925158 0.0248018 0.000332465 0.012089 -3.35232 0.0353568 -0.0146271 -0.00904757
76 1 0.900027 0.0249034 0.0249452 0.0107276 -3.36355 -0.0487147 -0.000329203 0.0108387
155 1 0.925206 0.0498231 0.0252619 0.017569 -3.36469 -0.0169402 -0.0129203 -0.00881797
1674 1 0.924963 0.0246449 0.0500253 0.0232525 -3.35479 0.0254842 0.10006 -0.010948
1753 1 0.899925 0.050015 0.0501429 0.0119694 -3.35675 0.0351144 -0.0397113 -0.0509698
81 1 0.999833 0.0499956 -0.00011627 0.0111549 -3.3592 0.0444021 -0.0574562 0.0447488
78 1 0.975129 0.0248389 -0.000217355 0.0154693 -3.35826 0.0155911 -0.00875977 0.0398596
80 1 0.95048 0.0245914 0.0250317 0.0363963 -3.35904 -0.108708 0.0571501 -0.0208828
159 1 0.974616 0.0498131 0.024889 0.0272766 -3.36008 0.0740732 0.0263744 0.0656527
1678 1 0.974805 0.0250718 0.0501086 0.0297515 -3.35642 0.0650126 0.0137217 0.0104391
1757 1 0.949823 0.0498765 0.0501774 0.0218371 -3.36093 0.0410669 0.0602358 -0.0299592
84 1 -0.000157266 0.0750025 0.0252165 0.0178979 -3.35869 0.00863485 -0.0332739 -0.0715902
88 1 0.0502858 0.0748023 0.0248523 0.0290699 -3.36784 -0.0713351 0.0431909 0.0691634
163 1 0.0249807 0.0998294 0.0247918 0.0133788 -3.36326 0.0333662 -0.0202102 0.0823767
165 1 0.0501133 0.0997638 0.000117461 0.0174393 -3.36783 -0.00363391 0.0711521 -0.0750168
1682 1 0.0249363 0.0750585 0.0500914 0.0133647 -3.35293 0.0360793 0.0424774 -0.0636884
1761 1 -0.000316347 0.099716 0.0501329 0.0325245 -3.35722 0.121957 0.113665 -0.0161744
1765 1 0.0497434 0.0998211 0.0501853 0.0330055 -3.3604 0.027998 -0.01216 -0.0771022
92 1 0.0997186 0.0750601 0.0251094 0.0270811 -3.35914 0.0484589 -0.0379208 -0.0158793
167 1 0.0751174 0.100235 0.0248764 0.0278969 -3.35966 -0.0225087 -0.0587111 0.0538057
1686 1 0.075042 0.0748993 0.0502389 0.0207578 -3.36208 -0.0621788 -0.0577207 -0.0897003
1769 1 0.0997964 0.0995664 0.0502629 0.0282401 -3.35951 0.0411153 0.131694 -0.0458087
96 1 0.149925 0.0751349 0.0248594 0.0132409 -3.35953 -0.00214941 -0.0132452 -0.0291887
171 1 0.124737 0.100185 0.0253216 0.036351 -3.36238 0.0659774 -0.0387093 -0.0638747
173 1 0.150193 0.100052 -0.000288073 0.0321393 -3.35662 -0.100816 0.0384894 0.138048
1690 1 0.125037 0.0746228 0.0500776 0.0186217 -3.35462 -0.0194314 0.0377126 -0.00792848
1773 1 0.149976 0.0998747 0.0497424 0.0247608 -3.36423 0.010779 0.0599079 0.0950211
94 1 0.174982 0.0752632 8.38629e-05 0.0231864 -3.36174 0.0781296 -0.0898413 -0.0421933
100 1 0.199977 0.0749481 0.0251844 0.0143102 -3.3641 0.0502353 0.020501 -0.0830755
175 1 0.175024 0.100013 0.0249549 0.00881113 -3.35137 -0.0100739 0.00958281 0.0347908
177 1 0.200169 0.100154 0.000216621 0.0262709 -3.3608 -0.0225758 -0.0761694 -0.056329
1694 1 0.175104 0.0747744 0.0495738 0.0340933 -3.35574 -0.0101168 0.0722831 0.127352
1777 1 0.199739 0.100046 0.0504415 0.0477078 -3.35645 0.0100473 -0.0852753 -0.152443
104 1 0.250013 0.0750525 0.0251073 0.0125347 -3.36425 0.027961 -0.0332483 -0.0127234
179 1 0.224916 0.0999823 0.0250366 0.00670985 -3.35991 -0.030122 0.00930481 0.0255304
181 1 0.250069 0.100092 3.91672e-05 0.00574175 -3.35231 -0.0202292 0.00108916 -0.0235966
1698 1 0.225193 0.0752332 0.0502361 0.0310993 -3.35427 -0.051406 -0.0701384 -0.0684192
1781 1 0.250134 0.100106 0.0497772 0.022884 -3.35331 -0.029879 0.00585671 0.0417287
108 1 0.300077 0.0749995 0.0246962 0.0261061 -3.3588 -0.0609833 0.029268 0.0747831
183 1 0.274837 0.100356 0.0248841 0.0191827 -3.35743 0.0681201 -0.0836469 0.049293
1702 1 0.275086 0.0750548 0.0503732 0.0373206 -3.35797 -0.0169334 0.0443492 -0.16738
1785 1 0.299993 0.100085 0.0499011 0.0117607 -3.35929 -0.037733 0.0240199 -0.0600367
106 1 0.3254 0.0750509 0.000196976 0.049549 -3.35409 -0.10916 -0.0156845 -0.14097
112 1 0.349761 0.0752724 0.0251213 0.0231965 -3.3572 0.134376 -0.0566821 -0.0182044
187 1 0.325247 0.099863 0.0249923 0.0268969 -3.35918 -0.0969946 0.137754 0.0161527
1706 1 0.324691 0.0752442 0.0500122 0.0152856 -3.34942 0.0909146 -0.0604035 -0.0126961
1789 1 0.350053 0.100359 0.0501151 0.0260003 -3.35272 -0.00532765 -0.100727 -0.0507561
116 1 0.400374 0.0747896 0.024664 0.0496881 -3.35682 -0.129917 0.0246044 0.117685
191 1 0.375245 0.100177 0.024868 0.0300762 -3.35757 -0.0534309 -0.0780072 0.0382959
193 1 0.400404 0.100122 0.000208666 0.0429753 -3.35884 -0.0622186 -0.037131 -0.14092
1710 1 0.37466 0.0747825 0.0498633 0.0269256 -3.35949 0.0641586 0.058079 -0.0424549
1793 1 0.399726 0.0998913 0.0498871 0.0193253 -3.36105 0.0768849 -0.00770298 -0.00749988
120 1 0.450044 0.074984 0.0251518 0.0152403 -3.35863 -0.028748 0.0508212 -0.0499564
195 1 0.424945 0.0998085 0.0247342 0.0263634 -3.35991 0.0551735 0.117166 0.120885
1714 1 0.424859 0.0750563 0.0499867 0.0198691 -3.35699 0.0057273 -0.0173929 -0.0159137
1797 1 0.450016 0.0998243 0.0501385 0.0184375 -3.35398 -0.077856 0.0818671 -0.0827137
122 1 0.52483 0.075015 0.000158503 0.0241314 -3.35977 0.0363221 0.0011514 -0.0819689
124 1 0.499875 0.0747751 0.0248433 0.0315751 -3.35669 -0.0293188 0.103131 -0.00281761
199 1 0.47473 0.100344 0.0252006 0.0469423 -3.364 0.0336126 -0.130603 -0.119513
201 1 0.500013 0.100077 -0.000173287 0.0244622 -3.35569 -0.0660219 -0.134728 0.0793282
203 1 0.524858 0.099878 0.0251905 0.015519 -3.35339 0.0436387 0.0181969 -0.109722
1718 1 0.474939 0.0752113 0.0502805 0.0323817 -3.3431 -0.00400942 -0.0482585 -0.108322
1722 1 0.524886 0.0752073 0.050074 0.0176699 -3.35459 0.0669823 -0.026867 0.0261676
1801 1 0.500055 0.0998481 0.0495506 0.0532981 -3.3593 -0.0162987 0.0866936 0.162865
126 1 0.575384 0.0748808 -0.000204987 0.0284936 -3.35272 -0.0607301 -0.0189136 0.0740226
128 1 0.549993 0.0750193 0.0250091 0.00983778 -3.36305 0.0720655 -0.023724 0.00444796
205 1 0.550157 0.0995849 0.000125084 0.0238911 -3.36565 -0.103076 0.0557042 -0.0245376
207 1 0.575309 0.100055 0.0248114 0.0218694 -3.36292 -0.0443448 -0.0374476 0.118271
1726 1 0.57512 0.0750424 0.0499613 0.00896418 -3.36695 -0.0061979 0.018835 0.01188
1805 1 0.54996 0.100031 0.0499098 0.0135758 -3.36303 0.0742912 -0.0388186 0.0631486
130 1 0.624861 0.0750915 -0.000236073 0.0178201 -3.3643 -0.0176592 -0.0327018 0.0707736
132 1 0.599838 0.0747857 0.0248329 0.02388 -3.35968 0.0708813 0.0688134 0.0586206
211 1 0.624954 0.0997437 0.0249646 0.0212659 -3.3594 -0.028155 0.0293353 -0.012369
1730 1 0.624746 0.0747536 0.0503074 0.0314588 -3.35743 0.0547442 0.0337851 -0.09292
1809 1 0.600384 0.09993 0.0502809 0.0372165 -3.36443 -0.112916 0.00570447 -0.106679
134 1 0.675092 0.0751994 -3.22214e-05 0.0124269 -3.35834 -0.00572384 -0.0319073 0.0508242
136 1 0.649989 0.0749633 0.0250539 0.00954792 -3.3637 -0.0667842 -0.0757558 -0.0183962
215 1 0.675082 0.0999925 0.025082 0.0174195 -3.35499 0.0745449 -0.0265423 -0.0702885
1734 1 0.674857 0.0747297 0.0498633 0.0244688 -3.35805 0.030226 0.0812524 0.0586337
1813 1 0.649924 0.0999088 0.0493831 0.0524461 -3.34869 -0.00642821 -0.00140552 0.158309
140 1 0.700096 0.0750468 0.0248832 0.0127602 -3.35913 -0.0844928 0.0236876 0.0277231
219 1 0.724978 0.100151 0.0252876 0.0152732 -3.35569 0.0352539 -0.0315035 -0.0288861
1738 1 0.724898 0.0747725 0.0498087 0.0341663 -3.35187 0.018737 0.127069 0.0996783
1817 1 0.699942 0.100051 0.0499877 0.0100069 -3.35909 0.0852071 -0.0586491 0.0272472
142 1 0.774801 0.074915 -1.76013e-05 0.0185752 -3.36109 0.0477945 0.00412427 -0.00673301
144 1 0.750006 0.0750899 0.0252596 0.0178814 -3.35703 -0.00168111 0.0234807 -0.0462672
221 1 0.750175 0.100135 6.00147e-05 0.0121405 -3.36289 -0.0329232 -0.00277907 -0.00807421
223 1 0.775183 0.0999486 0.0246715 0.0299097 -3.35707 -0.0578501 -0.0128839 0.0686081
1742 1 0.775277 0.0751664 0.0499441 0.0174246 -3.36125 -0.041111 -0.0375287 -0.0251446
1821 1 0.749911 0.0999738 0.0502792 0.0227342 -3.36491 0.0553422 -0.017555 -0.0478329
146 1 0.825531 0.0751882 -0.000304508 0.0604725 -3.36163 -0.146403 -0.0409687 0.0653147
148 1 0.800347 0.0747365 0.0246067 0.0374807 -3.36656 -0.0595877 0.034441 0.0196575
225 1 0.799975 0.10016 -5.73891e-06 0.0140453 -3.36678 0.0219916 -0.0570424 -0.0108422
227 1 0.825064 0.099789 0.0249806 0.0135045 -3.35297 -0.0255767 -0.00218443 -0.00561716
1746 1 0.825127 0.0747393 0.050064 0.0200002 -3.35933 -0.0174121 0.0749044 -0.0465566
1825 1 0.800029 0.0997463 0.049471 0.0372371 -3.34941 0.0333342 -0.0103561 0.0758512
150 1 0.874818 0.0751478 0.000166039 0.0188993 -3.36349 0.065068 -0.0123133 -0.0382889
152 1 0.850083 0.0751143 0.0251069 0.0110306 -3.35518 -0.047807 -0.0669892 -0.000356323
229 1 0.850256 0.100386 0.000427906 0.0551358 -3.35172 0.0144719 -0.0678349 -0.0850531
231 1 0.87526 0.099835 0.0253864 0.0396385 -3.35721 0.00103823 0.120626 -0.131319
1750 1 0.87488 0.0748137 0.0497935 0.0247988 -3.35648 0.0377396 -0.0220345 0.127806
1829 1 0.850241 0.0998694 0.0500272 0.0187626 -3.35013 -0.0930944 0.00630992 -0.00425075
154 1 0.925248 0.0746781 3.81292e-05 0.0202631 -3.35364 -0.0307464 0.0858727 -0.0179001
156 1 0.900226 0.074931 0.024988 0.0139696 -3.35541 -0.000214022 0.00861514 0.00957357
233 1 0.900135 0.0998773 -0.000156972 0.0182754 -3.36524 -0.0189396 0.0512444 0.0441764
235 1 0.924969 0.100166 0.0244682 0.0414649 -3.35818 0.00209455 -0.0433479 0.0914079
1754 1 0.925125 0.0750925 0.0500495 0.015363 -3.36627 -0.000391851 -0.00925997 -0.0112798
1833 1 0.90001 0.100071 0.0498128 0.0253458 -3.3615 0.0827268 -0.0406075 0.105634
160 1 0.950028 0.0750002 0.0247903 0.0150453 -3.35642 -0.0313045 -0.0215958 0.108435
239 1 0.974935 0.100373 0.0248383 0.0513578 -3.34786 0.0164475 -0.128544 0.0347672
1758 1 0.975018 0.0749946 0.0499658 0.0108694 -3.36272 -0.0695018 -0.055843 -0.0127873
1837 1 0.949986 0.100024 0.0496538 0.0195164 -3.3597 -0.0130681 -0.0574436 0.075735
162 1 0.0248417 0.124826 -0.000150434 0.0116374 -3.36185 0.100175 0.0165205 0.017689
168 1 0.0500177 0.124915 0.0248469 0.0053836 -3.35666 -0.036377 -0.00294502 -0.0243739
243 1 0.0250583 0.149934 0.0247214 0.0132671 -3.35724 -0.0217406 -0.0243313 -0.0744013
245 1 0.0501601 0.149879 -0.000316862 0.0129429 -3.36041 -0.0881999 0.0185145 0.0930942
1762 1 0.024907 0.125018 0.0497604 0.0121338 -3.36496 -0.0194737 -0.0547316 0.0683253
1841 1 0.00050477 0.15004 0.0499504 0.0471197 -3.3602 -0.125208 -0.103257 0.0584258
1845 1 0.049816 0.150116 0.0496494 0.0201282 -3.35372 0.0897124 -0.0046368 0.0538969
172 1 0.100216 0.125237 0.0250403 0.0214765 -3.35875 -0.0600193 -0.074435 0.0647921
247 1 0.0750368 0.149945 0.0248162 0.0099133 -3.3577 -0.0369373 0.0478099 0.0551085
249 1 0.0999702 0.150193 4.46163e-05 0.00901269 -3.3638 0.0423894 -0.0239279 -0.0688737
1766 1 0.0745364 0.124935 0.0498997 0.0552269 -3.36394 0.188254 0.0399362 0.0262921
1849 1 0.10009 0.149973 0.0502547 0.0147797 -3.36675 -0.0699285 -0.0218134 -0.0493655
170 1 0.125178 0.125037 1.11501e-05 0.0121018 -3.36382 -0.0275834 0.0350622 0.0217066
176 1 0.149856 0.125246 0.0251067 0.0175576 -3.36395 0.0127734 -0.0555056 -0.0276521
251 1 0.124683 0.15017 0.0252332 0.0317619 -3.35624 0.0806913 0.00546136 -0.0341336
1770 1 0.125018 0.124982 0.0504215 0.0204259 -3.3668 -0.017416 -0.0102967 -0.0247533
1853 1 0.149849 0.15036 0.0499328 0.0233423 -3.36197 0.0262428 -0.120293 0.0445038
180 1 0.19981 0.125234 0.0252953 0.0392364 -3.35576 0.0432641 -0.0692047 -0.0768115
255 1 0.175151 0.149983 0.0250896 0.0106787 -3.35679 0.0117736 -0.0142214 0.0403223
257 1 0.200177 0.150016 1.97622e-05 0.0149418 -3.3674 -0.0409963 -0.0215747 0.00679372
1774 1 0.174833 0.124948 0.0498756 0.0216081 -3.36065 -0.0563301 0.0270676 0.0561509
1857 1 0.200201 0.149978 0.050491 0.0568568 -3.35129 -0.12451 0.011413 -0.154085
184 1 0.249564 0.125079 0.0248711 0.0243751 -3.35193 0.06959 -0.0264908 0.0612456
259 1 0.22506 0.149611 0.0250955 0.0310612 -3.36077 -0.0575507 0.140304 -0.0197041
1778 1 0.22442 0.124653 0.0501076 0.0623298 -3.3541 0.189627 0.0714564 -0.0294769
1861 1 0.249879 0.150037 0.0499551 0.0270685 -3.37066 -0.0265291 -0.0703279 0.0889877
182 1 0.274857 0.125164 -1.57341e-05 0.00659212 -3.35864 0.069718 -0.0202514 -0.00329789
188 1 0.299883 0.125256 0.0250273 0.0135092 -3.37072 0.0988737 -0.0389714 0.0123534
263 1 0.274613 0.149985 0.0249974 0.0223154 -3.35878 0.0948427 0.0229893 0.0425145
1782 1 0.274923 0.124847 0.0498821 0.0193339 -3.35644 -0.0105517 0.104555 0.0382038
1865 1 0.299857 0.150184 0.0501735 0.0223727 -3.36572 0.0581247 -0.0144551 -0.0291208
192 1 0.34999 0.125032 0.0249239 0.00961236 -3.36382 0.000618355 0.0182054 0.0377186
267 1 0.325272 0.150283 0.0250622 0.0215412 -3.35968 -0.0631917 -0.138127 0.0362711
269 1 0.350165 0.149835 -2.49779e-05 0.0107235 -3.36211 -0.0208819 0.0153657 -0.040734
1786 1 0.325312 0.125163 0.050203 0.0206073 -3.36368 -0.0701297 0.070463 -0.117643
1869 1 0.350067 0.150331 0.0502833 0.0205815 -3.35379 0.0541617 -0.11571 -0.0237314
196 1 0.399843 0.125599 0.0249731 0.0638945 -3.36058 0.0789342 -0.123358 -0.0283508
271 1 0.374879 0.150094 0.0248672 0.0209531 -3.35833 0.0149384 0.00581941 0.058195
1790 1 0.375001 0.124764 0.0501389 0.0331493 -3.35086 -0.00631154 0.123121 -0.0442014
1873 1 0.399597 0.150163 0.04985 0.0425241 -3.35674 0.120498 -0.0376256 0.0448188
194 1 0.42529 0.124918 -0.000134165 0.0214666 -3.35915 -0.109678 0.0409499 -0.00985368
200 1 0.450077 0.125403 0.0251305 0.0453931 -3.35897 -0.0589629 -0.129591 -0.0126884
275 1 0.425008 0.150051 0.0246807 0.019921 -3.35501 -0.0481309 0.0130164 0.0766694
277 1 0.449865 0.149762 6.03835e-05 0.0374444 -3.35483 0.107501 0.0588473 -0.0958699
1794 1 0.424792 0.125029 0.0498366 0.0142146 -3.36994 0.0376096 0.00315578 0.00360995
1877 1 0.449689 0.150306 0.0501576 0.055914 -3.36508 0.111478 -0.0415835 -0.119048
202 1 0.525028 0.12459 -0.000254106 0.0260568 -3.36335 0.0416677 0.0216128 0.0706046
204 1 0.49998 0.124883 0.0248447 0.00765279 -3.34999 0.0228553 0.010999 0.0400019
279 1 0.475275 0.149835 0.0247949 0.0268619 -3.36564 -0.0663726 0.0943482 0.0587642
281 1 0.500078 0.149779 -0.000103843 0.00606915 -3.35788 -0.0189302 0.0585947 -0.00892072
283 1 0.524675 0.149897 0.0246837 0.0321321 -3.35717 0.0880457 -0.00656624 0.0403018
1798 1 0.474901 0.125088 0.0499114 0.0103795 -3.35949 0.0605076 0.0514715 0.0383048
1802 1 0.524937 0.124841 0.0499026 0.0102722 -3.35425 -0.0188407 -0.0061077 0.0381661
1881 1 0.500279 0.150107 0.0499396 0.0160199 -3.35669 -0.0921997 -0.0648505 -0.0353746
206 1 0.575008 0.124664 -1.90673e-05 0.0125518 -3.34844 -0.0858547 0.0719712 0.0077412
208 1 0.549936 0.1249 0.0252955 0.0277141 -3.35799 0.0135439 -0.0352427 -0.111968
285 1 0.549767 0.149569 0.000112029 0.0239433 -3.36444 0.0446874 0.0138252 -0.0347684
287 1 0.575091 0.149621 0.0247805 0.021598 -3.36344 -0.0358611 0.0494928 0.0672882
1806 1 0.575285 0.12502 0.0501106 0.0140384 -3.36682 -0.00468034 -0.0407065 -0.0520026
1885 1 0.549692 0.149831 0.0496965 0.0344329 -3.35743 0.126528 0.0190956 0.0108515
212 1 0.6001 0.125051 0.024538 0.0327665 -3.35767 -0.000385726 -0.03702 0.160534
289 1 0.599804 0.150157 -0.000134981 0.0166948 -3.34929 0.0326648 -0.0240547 -0.0493176
291 1 0.624843 0.14991 0.0247785 0.0207291 -3.35078 0.135178 -0.0376602 0.00539025
1810 1 0.625131 0.124988 0.0495308 0.0252104 -3.36729 0.0236928 -0.00203729 0.0642367
1889 1 0.600261 0.150053 0.0501545 0.0432687 -3.35853 -0.0890095 -0.0606512 -0.0528896
214 1 0.675455 0.124608 -0.000206004 0.0649068 -3.36548 -0.0684453 0.126082 0.0562032
216 1 0.650427 0.124828 0.0245078 0.05108 -3.36218 -0.073178 0.0950014 0.0735876
293 1 0.649847 0.150128 -0.000153881 0.0177838 -3.36564 0.076115 0.00448834 0.0147384
295 1 0.674924 0.150323 0.0249248 0.0293959 -3.36838 0.0825705 -0.118887 -0.0552054
1814 1 0.67522 0.124618 0.0500423 0.0445091 -3.34856 -0.0817547 0.157743 -0.0702458
1893 1 0.650279 0.149809 0.0498533 0.0219265 -3.36681 -0.0657511 -0.0243532 -0.00319988
220 1 0.700329 0.125128 0.0251088 0.0214655 -3.36325 -0.119265 0.0202035 -0.031783
299 1 0.725045 0.149968 0.0249578 0.00919444 -3.3559 -0.0514625 0.025055 0.0578191
1818 1 0.725182 0.125035 0.0501489 0.0184175 -3.35463 -0.0942183 -0.0261344 0.0360166
1897 1 0.699594 0.149963 0.0502366 0.0432751 -3.36678 0.101786 -0.00596939 -0.058517
222 1 0.775204 0.125611 0.00015679 0.0430421 -3.34955 -0.0731282 -0.132631 -0.0548447
224 1 0.750144 0.124908 0.024883 0.0220931 -3.35717 0.0270294 0.0213801 0.0717398
303 1 0.775072 0.150119 0.0247774 0.0205541 -3.3675 -0.0430525 0.029928 0.129102
1822 1 0.775225 0.124558 0.0500646 0.0332773 -3.35926 -0.0880526 0.0990071 -0.0389343
1901 1 0.749768 0.149344 0.050306 0.0805666 -3.36299 0.120801 0.11008 -0.112725
226 1 0.825044 0.125052 0.000303844 0.0167266 -3.35267 -0.00176949 0.0428833 -0.0620797
228 1 0.799807 0.12509 0.0249163 0.0201101 -3.35231 0.0787975 0.0175631 0.0166189
307 1 0.825126 0.150133 0.0246321 0.0203411 -3.35828 -0.00806906 -0.0380978 0.0874501
1826 1 0.824861 0.124659 0.0496261 0.0296495 -3.36419 0.020811 0.102617 0.0764425
1905 1 0.800098 0.149907 0.0500837 0.0205807 -3.36422 0.0292067 -0.00114995 -0.064404
230 1 0.875351 0.125065 -3.17088e-05 0.0215099 -3.36479 -0.0493051 -0.0220157 0.0727869
232 1 0.84967 0.124899 0.0248384 0.0519345 -3.35331 0.160345 0.0175904 0.0726321
309 1 0.850545 0.150201 7.58337e-05 0.0490378 -3.35747 -0.0933928 -0.0821416 -0.061113
311 1 0.874952 0.149637 0.0252443 0.0388046 -3.36219 0.0659505 0.0470039 -0.0381135
1830 1 0.874916 0.124736 0.0503387 0.0260541 -3.35652 0.0527746 0.0578179 -0.0783572
1909 1 0.85007 0.149773 0.0498043 0.00707729 -3.35893 0.00163966 0.00374219 0.0283534
234 1 0.925315 0.125153 -0.000376652 0.0212938 -3.35823 -0.0746701 -0.0358148 0.0610165
236 1 0.900263 0.125406 0.025137 0.0435111 -3.36545 -0.0327917 -0.0812956 -0.0607095
313 1 0.900219 0.150188 -0.000199179 0.027524 -3.3599 -0.0117089 0.041966 0.0785503
315 1 0.925369 0.150165 0.0248614 0.0243909 -3.36029 -0.0816517 -0.0346449 0.0213265
1834 1 0.925287 0.124834 0.049829 0.0166473 -3.36432 -0.0744087 0.01751 0.0822634
1913 1 0.900076 0.149839 0.0504619 0.021946 -3.35559 0.0342773 -0.0375868 -0.0508251
164 1 0.999924 0.124667 0.0248377 0.0228953 -3.36241 0.00824331 0.0998288 0.0691161
238 1 0.975047 0.124976 -0.00024367 0.0163786 -3.36161 0.00297236 -0.0377016 0.0125948
240 1 0.950101 0.124928 0.0247539 0.0102274 -3.35252 -0.00336553 0.0761288 0.015312
317 1 0.950041 0.150112 -0.000203041 0.0157826 -3.35038 -0.0125366 -0.034961 0.0415237
319 1 0.974948 0.150136 0.0254594 0.0661859 -3.36003 0.0179914 -0.14287 -0.0812541
1838 1 0.97495 0.124802 0.0501242 0.0155259 -3.3602 0.0566748 0.0847236 -0.022252
1917 1 0.949917 0.149818 0.0501229 0.0241738 -3.35602 0.0455151 -0.0170981 -0.0313376
242 1 0.024856 0.174885 -0.000516746 0.0267922 -3.3639 0.0215609 -0.00676502 0.120298
248 1 0.0495453 0.175291 0.0247056 0.0452354 -3.36335 0.0748843 -0.0610127 -0.0222676
323 1 0.0247478 0.200294 0.0249438 0.0422483 -3.3618 0.0384026 -0.112816 -0.0014617
325 1 0.0498884 0.200012 -0.000275184 0.0199651 -3.36028 -0.0304015 -0.0275776 0.0213856
1842 1 0.0250799 0.174773 0.0498437 0.0282198 -3.35042 -0.0014847 0.13069 0.047897
1921 1 0.000134531 0.200032 0.0498494 0.0152145 -3.36452 0.0097143 -0.0485013 0.0389796
1925 1 0.0498115 0.199983 0.0503257 0.0279578 -3.36144 0.0528428 0.00398502 -0.0933887
246 1 0.0748907 0.174879 -0.000298269 0.014462 -3.35849 0.0097972 0.0316223 0.0689844
252 1 0.0999423 0.175067 0.0249986 0.0103961 -3.35527 0.00233056 -0.0457034 0.0452787
327 1 0.074879 0.199772 0.0248691 0.0170548 -3.35548 -0.0431878 0.0492583 0.0137797
329 1 0.10011 0.199779 0.0003088 0.0261941 -3.36216 -0.0455687 0.0710921 -0.111877
1846 1 0.0747672 0.175057 0.0495973 0.0445355 -3.36443 0.0553015 -0.0365855 0.0536229
1929 1 0.0997218 0.200198 0.0499211 0.0370583 -3.35949 0.111874 -0.0873865 0.0340938
250 1 0.125077 0.175102 -0.00012003 0.0159467 -3.35602 -0.0183587 -0.0415428 0.0247157
256 1 0.150273 0.174835 0.0247764 0.0548886 -3.33918 -0.112656 0.039816 0.108577
331 1 0.125078 0.199554 0.0251964 0.0413792 -3.36349 0.00983571 0.1199 -0.00109095
333 1 0.150132 0.199828 0.000270196 0.0175247 -3.35875 -0.0156706 0.061477 -0.0847488
1850 1 0.125176 0.175257 0.0502794 0.0358627 -3.35991 -0.0867347 -0.00976421 -0.102786
1933 1 0.150375 0.200055 0.0499749 0.0390408 -3.35263 -0.159177 0.090973 0.0361243
254 1 0.174999 0.174899 0.000459747 0.0361624 -3.35839 0.10824 0.0625461 -0.171725
260 1 0.200006 0.174961 0.0252881 0.0125478 -3.36583 0.0160188 -0.0411765 -0.0532351
335 1 0.174938 0.200152 0.0253739 0.0242174 -3.35117 0.0816021 -0.00673873 -0.0678734
337 1 0.199919 0.200136 0.000289276 0.0253376 -3.36251 0.0134483 -0.149221 -0.0596003