ITEM: TIMESTEP
19500
ITEM: NUMBER OF ATOMS
32000
ITEM: BOX BOUNDS pp pp pp
7.8945069445985725e+00 7.3105493055396266e+01
-3.0663473897872535e+00 8.4066347389780972e+01
-6.5563917187307652e+00 8.7556391718726786e+01
ITEM: ATOMS id type xs ys zs c_csym c_peratom fx fy fz
2 1 0.0393942 0.0220695 0.00458162 0.130851 -3.35656 0.0130385 -0.206539 -0.23879
78 1 0.00475958 0.0219832 0.0218265 0.0738885 -3.33262 -0.0800848 -0.0816752 0.155305
81 1 0.0346817 0.0458331 0.0246806 0.127493 -3.33425 0.0375932 -0.0193315 0.268773
159 1 1.0003 0.045151 0.0432062 0.0890455 -3.35489 0.0445102 0.141807 -0.0716766
79 1 0.000621497 0.999253 0.044216 0.088272 -3.36569 -0.0983767 -0.15336 0.0283189
8 1 0.06461 0.0213594 0.0285589 0.20968 -3.36217 0.258366 0.154812 -0.0624361
3 1 0.0346649 0.998813 0.0262214 0.0737784 -3.35525 0.0604449 -0.137167 -0.174923
1 1 0.00887593 0.998397 0.00132275 0.0433687 -3.35634 0.0982326 0.0844704 0.127047
30559 1 0.00906558 0.0447656 1.00106 0.198376 -3.33206 -0.0206954 0.120965 -0.357061
12 1 0.0997359 0.0217173 0.0100879 0.122855 -3.3649 -0.117712 0.134335 0.00919211
87 1 0.0684756 0.0458169 0.00671982 0.1869 -3.33364 0.255962 -0.135652 -0.161858
1689 1 0.0948985 0.0465686 0.0299039 0.365054 -3.3616 0.16263 -0.264918 0.194081
1609 1 0.0960238 0.998775 0.0327083 0.240769 -3.34302 -0.109577 -0.000435241 -0.137639
1610 1 0.125737 0.0223543 0.0341388 0.170246 -3.35902 -0.154235 0.173304 0.0732526
91 1 0.130458 0.0461358 0.0119629 0.0993959 -3.35804 0.00886883 -0.111672 0.104406
16 1 0.159973 0.0220403 0.0161007 0.13524 -3.35187 -0.0819763 0.0244821 -0.0226976
1614 1 0.183296 0.0222512 0.042113 0.202934 -3.33235 0.0945976 -0.0333625 -0.251168
1693 1 0.155515 0.0466608 0.0371733 0.110828 -3.33319 -0.122431 -0.155286 -0.0465114
95 1 0.18984 0.0457751 0.0187642 0.375956 -3.33301 0.0216335 -0.135348 0.137565
20 1 0.217085 0.0206153 0.023143 0.314783 -3.33701 0.000848938 0.23041 0.00297992
1697 1 0.212883 0.0457153 0.0451356 0.322664 -3.33551 0.0717497 0.0982977 -0.201414
99 1 0.248689 0.0452095 0.0286946 7.71372 -3.34233 -0.119436 0.0827168 -0.303613
18 1 0.252335 0.0204896 0.00420007 6.01685 -3.30625 -0.0998112 -0.0445971 0.156172
97 1 0.225449 0.0441446 0.00262471 6.54765 -3.32331 -0.355556 0.255773 -0.0977007
24 1 0.276285 0.0211031 0.0296471 6.91732 -3.33975 -0.252473 -0.173387 -0.0170354
22 1 0.293552 0.0301661 0.00426148 0.579373 -3.31132 0.171799 -0.123113 -0.0270945
28 1 0.318112 0.027513 0.0289807 0.308246 -3.32227 0.147441 -0.129574 -0.188797
25 1 0.31963 0.00504392 0.00623326 6.55443 -3.30093 -0.0991621 -0.139544 -0.0574966
32 1 0.361607 0.031104 0.0260993 0.345006 -3.29505 -0.0423396 -0.0596366 0.133118
31 1 0.385955 0.00535777 0.0241992 1.05994 -3.29948 -0.0413177 -0.0817008 -0.00248812
36 1 0.40585 0.0352041 0.0226796 7.56278 -3.29258 -0.168855 0.105826 0.19513
35 1 0.425653 0.00660803 0.0191899 7.66321 -3.28982 0.18766 0.0361892 0.108262
1638 1 0.454366 0.0298393 0.0226128 7.21485 -3.27181 -0.0456728 -0.193413 -0.00696864
1637 1 0.452911 0.00850469 0.0437229 6.10629 -3.32482 -0.0681171 -0.0209355 0.167285
1641 1 0.491661 0.0164147 0.0337507 6.91063 -3.32343 0.127276 -0.0756356 0.0541967
44 1 0.489587 0.0284555 0.0063917 7.68118 -3.32213 0.151787 0.0261883 -0.0192178
43 1 0.530936 0.0218122 0.0178511 13.2265 -3.33044 -0.0580448 -0.135681 0.332744
1721 1 0.485137 0.0512215 0.0277012 9.78871 -3.30418 -0.226407 -0.0192063 -0.079838
48 1 0.564306 0.030586 0.037408 9.87398 -3.2435 -0.0801941 0.000433898 -0.239512
52 1 0.576915 0.012578 0.0167526 6.33993 -3.26415 -0.137101 -0.0453244 -0.0792741
1650 1 0.601549 0.0136105 0.0413012 2.6731 -3.30339 -0.0176101 -0.0214512 -0.0355937
131 1 0.606264 0.036811 0.0211155 0.765134 -3.32586 -0.127421 -0.00992672 0.11922
1733 1 0.632137 0.0402532 0.0463173 1.72019 -3.32425 0.063534 -0.155001 -0.109306
56 1 0.638052 0.015681 0.026475 0.552242 -3.34091 -0.0298379 0.0283302 -0.328659
135 1 0.667911 0.0396286 0.029059 7.1421 -3.2401 -0.497675 0.154757 -0.145026
133 1 0.641383 0.0382254 0.00355766 0.182699 -3.34386 -0.146977 0.0592099 0.187123
54 1 0.671381 0.0161204 0.00784892 0.129671 -3.33039 0.0517027 -0.145472 0.0293922
60 1 0.696778 0.0172442 0.0322263 6.94101 -3.2698 0.0801156 -0.122329 0.0787376
139 1 0.70178 0.041772 0.0129366 12.3971 -3.25415 0.186661 -0.286154 -0.108346
64 1 0.731703 0.0174151 0.0154805 12.9974 -3.235 -0.118176 0.141833 0.13907
68 1 0.788112 0.0198258 0.0230751 12.1037 -3.27856 0.062706 0.0124484 0.11713
143 1 0.75649 0.0419245 0.0200741 10.7212 -3.26774 0.0693946 0.111676 -0.0324533
1745 1 0.784052 0.0439814 0.0427038 7.17569 -3.26223 0.153786 -0.0813112 -0.164183
72 1 0.848956 0.0204564 0.0281662 0.0495635 -3.3486 0.117878 0.0949625 0.0420577
147 1 0.819034 0.0443808 0.0249207 0.0879566 -3.34274 -0.013207 -0.20685 -0.0853544
149 1 0.853542 0.0444466 0.00645401 0.0895642 -3.34629 0.00105098 -0.218989 -0.00451584
66 1 0.823471 0.0198025 0.00482297 0.235344 -3.35061 -0.0624496 0.142433 -0.229791
1666 1 0.815128 0.0209548 0.0461926 7.34823 -3.29795 0.0618861 -0.0154448 -0.0332734
76 1 0.910126 0.0208572 0.0345796 0.0396623 -3.36495 -0.0511643 0.021373 -0.106094
70 1 0.88395 0.0206275 0.0102171 0.0469733 -3.35606 -0.0479471 0.0611998 0.0155848
151 1 0.879437 0.0444361 0.0307114 0.0394151 -3.35979 0.0790226 -0.12341 0.0170944
153 1 0.914075 0.0443169 0.0124289 0.0369686 -3.36326 0.0167018 0.0910667 0.0495649
74 1 0.94515 0.0215712 0.016154 0.094957 -3.35488 -0.264797 -0.0361168 0.0195152
80 1 0.970401 0.0223592 0.040145 0.151312 -3.33797 0.0460632 -0.189968 0.111659
155 1 0.939789 0.0449346 0.0367798 0.0281531 -3.33587 0.0374882 0.049696 -0.142157
157 1 0.974308 0.0453259 0.0183395 0.0367225 -3.34878 -0.0914049 0.0604813 0.0256571
75 1 0.941106 0.998118 0.0388987 0.138193 -3.35398 -0.172621 0.00342848 -0.140517
158 1 0.00414821 0.068456 0.0204117 0.156412 -3.35584 0.136146 0.110991 0.283708
161 1 0.0349509 0.0925797 0.0239215 0.0810232 -3.34941 -0.0116441 -0.142675 -0.0177439
239 1 1.00023 0.0921804 0.041362 0.230793 -3.35486 -0.125283 -0.0994829 0.156878
30484 1 0.0394084 0.0687488 0.00276034 0.0535695 -3.3554 -0.066092 0.122834 -0.0608248
82 1 0.0649117 0.0689036 0.0272536 0.0757778 -3.35891 0.0310603 0.150844 0.0640251
92 1 0.100292 0.0688192 0.00751927 0.327396 -3.3488 -0.0430695 0.162108 0.303562
167 1 0.0945641 0.0927831 0.0291159 0.217595 -3.35057 0.165663 -0.170931 0.130289
165 1 0.0690891 0.0924427 0.00518338 0.0905643 -3.3475 0.222089 -0.0351197 -0.000635731
1690 1 0.12576 0.069765 0.0331289 0.0683956 -3.35939 -0.175768 0.111206 -0.0534076
171 1 0.129868 0.0930312 0.0111782 0.139216 -3.34674 0.00611539 -0.0390341 0.235864
96 1 0.160697 0.0696058 0.0152345 0.119573 -3.32105 -0.0832859 -0.0238665 -0.105662
1694 1 0.18427 0.0701396 0.0400434 0.231488 -3.32112 0.127553 -0.0381953 0.227117
1773 1 0.156016 0.0936591 0.0363905 0.253332 -3.34233 -0.335204 -0.0120388 0.00601481
175 1 0.191404 0.0939284 0.0198518 5.63083 -3.3244 -0.0839995 0.0239938 -0.0463211
100 1 0.220747 0.070265 0.0246291 6.36895 -3.35085 0.205079 -0.27706 -0.0503828
1777 1 0.215897 0.0937959 0.0446267 5.58581 -3.3406 -0.100798 0.216059 0.083437
104 1 0.266186 0.0765209 0.0243164 0.20202 -3.30902 0.290753 -0.245654 -0.0252689
103 1 0.292661 0.0526325 0.026887 0.217052 -3.30044 -0.09802 0.0887376 -0.186771
108 1 0.31081 0.0837544 0.0214596 0.296019 -3.35873 0.0611612 -0.0385024 0.0398982
101 1 0.265718 0.0530256 0.00219138 0.826451 -3.27067 0.469002 0.0709933 0.288083
107 1 0.33625 0.057597 0.0251134 0.49043 -3.26876 -0.214622 -0.00629251 -0.0648124
112 1 0.354855 0.0919037 0.0171623 7.53306 -3.34854 -0.0267844 -0.164347 0.133295
1706 1 0.336999 0.081458 0.0448377 0.781626 -3.35406 -0.00933353 0.181166 0.0777527
1710 1 0.381038 0.0894038 0.0404428 7.27057 -3.39289 -0.147438 -0.0202638 0.12856
111 1 0.378366 0.0609067 0.0231725 7.20425 -3.20851 0.176972 0.0791854 0.120094
116 1 0.39644 0.086437 0.0115944 2.5925 -3.31673 -0.0726894 0.384379 0.0796966
115 1 0.410706 0.0590571 0.00310134 1.91517 -3.26327 0.00349076 -0.193128 0.318706
1713 1 0.404106 0.0601708 0.0450568 5.29559 -3.25336 -0.411155 0.0811348 0.0487057
1714 1 0.423836 0.0863302 0.037163 3.4827 -3.29831 0.0291868 0.101418 -0.100683
1717 1 0.438484 0.0580356 0.0282424 5.77373 -3.26597 0.0631691 0.0148251 -0.145226
119 1 0.456191 0.0524137 0.00229599 7.72921 -3.3182 0.133835 0.188708 -0.00492615
120 1 0.439954 0.0810735 0.00914522 0.262299 -3.32891 0.12741 0.301069 0.00211181
1718 1 0.467058 0.0824581 0.0342794 0.982202 -3.30852 0.198845 -0.394866 0.0285458
124 1 0.509276 0.0768196 0.0295884 7.34901 -3.28731 0.0208523 0.146387 0.289825
118 1 0.483576 0.0763612 0.00678642 7.60931 -3.33538 -0.0134366 -0.0118638 -0.0730717
121 1 0.518866 0.0539953 0.0101424 6.97731 -3.29533 0.127667 0.0660781 -0.0943357
123 1 0.530564 0.049794 0.0376592 5.99102 -3.26527 -0.0268795 0.058089 -0.142527
128 1 0.544923 0.0801163 0.0132256 1.45153 -3.31163 -0.0212345 -0.0362715 -0.177308
1726 1 0.570124 0.0816763 0.0366152 2.14118 -3.27868 0.0575422 0.0392174 0.0533237
127 1 0.571115 0.0561991 0.019543 6.24994 -3.33722 0.0114181 -0.123243 -0.10107
1729 1 0.602756 0.0609187 0.0400393 3.34632 -3.25064 -0.243137 0.139537 0.188021
132 1 0.606522 0.0839567 0.0203056 0.668112 -3.27457 -0.181257 0.283657 -0.0695835
1730 1 0.633918 0.085812 0.0437587 6.85221 -3.29069 -0.0299367 0.0384278 0.407464
136 1 0.636588 0.0621435 0.0241957 6.94159 -3.21972 0.343104 -0.180575 -0.0111601
1734 1 0.664522 0.0645501 0.047299 10.8048 -3.27618 -0.0235523 0.0440878 0.0463223
215 1 0.642769 0.086641 0.00491574 6.51092 -3.31012 -0.07205 0.0365974 -0.0944385
140 1 0.670761 0.0631355 0.00795638 13.2257 -3.25409 0.073821 -0.034297 0.077523
144 1 0.728076 0.0654817 0.0153895 12.6282 -3.25636 -0.0726876 0.109025 0.0523914
219 1 0.6967 0.0871992 0.0115823 12.0692 -3.28624 -0.0155605 0.237581 0.0246435
1821 1 0.722602 0.0901298 0.03473 7.06372 -3.25835 0.16633 -0.202857 -0.0789722
148 1 0.788779 0.066914 0.0210853 0.126792 -3.33341 -0.210914 -0.0935174 -0.105159
223 1 0.757867 0.0896245 0.016735 0.0702857 -3.34569 -0.0284113 0.086046 0.0172171
1825 1 0.783526 0.0908021 0.0418592 0.10763 -3.34891 -0.0747097 -0.183685 -0.112202
1742 1 0.754163 0.0668294 0.0387423 6.63537 -3.25616 -0.0187971 0.0732962 -0.10974
152 1 0.849039 0.0670024 0.0275483 0.115563 -3.34087 0.0569166 0.191901 -0.0338261
229 1 0.852886 0.0903575 0.00605022 0.156916 -3.3604 0.0539195 0.136956 -0.0936207
146 1 0.823347 0.0671794 0.00300093 0.085472 -3.33327 -0.119986 -0.0819487 -0.244364
227 1 0.817532 0.0900972 0.0228348 0.257487 -3.33457 0.224744 0.2225 0.223962
1746 1 0.814619 0.0676973 0.04537 0.0466344 -3.35226 -0.0445784 -0.0501055 0.0338615
156 1 0.90986 0.067877 0.0336046 0.0655881 -3.35607 -0.131335 0.012132 -0.190121
150 1 0.88361 0.067537 0.00892335 0.0367284 -3.35645 0.00869672 0.105164 0.106163
233 1 0.913082 0.0914726 0.0110452 0.155034 -3.34949 0.0541228 -0.0275696 0.150227
231 1 0.878777 0.0911303 0.0305744 0.132652 -3.35402 0.137238 -0.04793 -0.302182
154 1 0.943649 0.0689021 0.0145402 0.151532 -3.36108 0.0153345 -0.269661 0.044381
160 1 0.969857 0.0684356 0.0393291 0.0579595 -3.36743 -0.109896 0.0698569 -0.10084
237 1 0.973891 0.0911163 0.0169992 0.188764 -3.33931 0.0577729 0.235508 0.233933
235 1 0.938514 0.0913347 0.0357099 0.127771 -3.3538 0.242534 0.0448405 0.106206
241 1 0.0329952 0.13871 0.0241553 0.0741009 -3.35641 0.266708 -0.00721449 -0.0972986
238 1 0.00445835 0.115324 0.0206277 0.0523436 -3.33642 -0.0903643 -0.00342279 0.0184588
30564 1 0.0391798 0.116224 0.00180299 0.152596 -3.3559 -0.0425315 -0.0773908 0.0960957
162 1 0.0644357 0.115358 0.0267395 0.0974692 -3.34572 -0.151797 0.271042 -0.00283677
172 1 0.124881 0.117171 0.0336808 0.177941 -3.33142 -0.185688 -0.126753 -0.197931
245 1 0.0934244 0.139191 0.0298925 0.15745 -3.34769 -0.0921554 0.098908 0.229005
30643 1 0.0675413 0.139605 0.00503738 0.151127 -3.35954 0.0968376 -0.0414285 0.0505141
166 1 0.0991245 0.116299 0.00878267 0.089557 -3.34541 -0.0127307 0.00398737 -0.181375
249 1 0.127824 0.14116 0.0125696 0.199517 -3.31553 -0.01195 -0.133131 -0.14635
176 1 0.158634 0.117448 0.0156137 0.652924 -3.33451 0.0896004 -0.00123867 0.082416
255 1 0.184424 0.144463 0.0176792 6.65339 -3.32098 -0.000537566 0.021565 0.0635558
251 1 0.152617 0.141519 0.0372829 0.140816 -3.33287 0.0839185 -0.0155228 -0.0281891
1774 1 0.183793 0.117926 0.0401699 0.576396 -3.33945 0.0766554 0.0711294 0.136036
179 1 0.241125 0.099944 0.0217134 1.12459 -3.25507 -0.161856 -0.0157355 -0.0881471
180 1 0.21292 0.121984 0.0196262 5.62351 -3.29149 0.00209251 0.0884413 -0.0860805
1857 1 0.210629 0.144564 0.0418719 6.56596 -3.33891 -0.101699 -0.126937 0.129184
184 1 0.254793 0.130302 0.0172613 0.124957 -3.30233 0.0219576 0.213384 -0.21846
183 1 0.282855 0.107324 0.0202027 0.259012 -3.31788 0.193676 -0.0238317 -0.180976
188 1 0.29655 0.138341 0.0139377 5.02004 -3.33349 0.140854 -0.0556295 0.148499
1782 1 0.280403 0.129802 0.0418179 0.0881059 -3.29803 0.121544 0.0629376 -0.0828171
1785 1 0.308737 0.106399 0.0441134 0.121192 -3.32413 0.0505625 -0.129756 -0.0456334
187 1 0.326104 0.115123 0.0158951 6.21638 -3.31821 -0.375145 -0.163652 0.0214211
1786 1 0.322139 0.138101 0.0386809 4.14484 -3.34855 -0.0343733 0.0114824 0.000741394
1789 1 0.34991 0.113836 0.0402791 6.73195 -3.31319 0.0690538 -0.190875 0.170702
192 1 0.353894 0.138614 0.0191992 5.37438 -3.18267 -0.163688 0.267839 -0.142411
191 1 0.383156 0.116738 0.0203569 7.26094 -3.31498 0.21276 -0.316984 -0.15965
1790 1 0.376704 0.138428 0.0422675 5.35284 -3.25714 0.251793 -0.0700567 0.574674
195 1 0.425923 0.11026 0.0165989 0.094787 -3.32724 -0.104401 0.0435675 0.0590223
196 1 0.412585 0.140309 0.0239485 7.06598 -3.32543 -0.208622 -0.230329 5.2811e-05
200 1 0.45564 0.133343 0.0213818 0.433709 -3.31754 -0.0929584 0.302705 0.079892
1797 1 0.45217 0.109984 0.0426564 0.271555 -3.28775 0.0769184 0.0184116 -0.240869
1793 1 0.408912 0.115227 0.0440907 7.16403 -3.32335 -0.090199 0.0473186 0.0287487
199 1 0.468891 0.105267 0.0147073 0.270188 -3.30754 0.253888 0.0531223 -0.0592535
1801 1 0.496861 0.104809 0.0415053 1.55723 -3.30816 -0.180154 -0.158155 -0.0750114
1802 1 0.500071 0.129558 0.021205 1.2597 -3.31813 -0.157579 -0.102012 -0.0469024
203 1 0.511738 0.101903 0.00994104 6.52341 -3.32887 -0.0137309 -0.0053282 0.141735
1798 1 0.480469 0.1335 0.048026 0.208008 -3.3186 0.0545445 0.00289769 -0.0911159
1805 1 0.536754 0.102182 0.0337842 4.96989 -3.26989 0.164215 -0.101585 -0.231232
208 1 0.540697 0.126936 0.0140026 5.62651 -3.27766 0.15959 -0.116487 -0.0188526
1806 1 0.565918 0.127557 0.0381144 0.990597 -3.30194 -0.0682409 0.0215388 -0.282388
207 1 0.573706 0.105496 0.0168615 0.0937622 -3.34524 -0.0631443 0.0798347 -0.112523
1809 1 0.59801 0.105367 0.0413403 0.291864 -3.31575 0.103188 0.217189 0.06573
211 1 0.609622 0.109108 1.00061 0.422778 -3.3474 -0.0610565 -0.282333 -0.139382
1810 1 0.601944 0.130386 0.0218315 0.228088 -3.33179 -0.127738 -0.00685223 -0.0893398
216 1 0.636878 0.133392 0.0039663 0.174139 -3.33317 0.297618 -0.082234 -0.0818369
1813 1 0.635744 0.109028 0.0255311 6.23807 -3.30651 -0.0627223 0.154038 -0.257375
1897 1 0.662221 0.134588 0.0280646 6.9404 -3.29343 -0.0162078 0.112379 0.132872
220 1 0.670127 0.112014 0.00713622 6.76175 -3.29703 -0.318546 -0.239524 -0.225702
224 1 0.727041 0.112773 0.0130119 0.0963462 -3.3521 0.0203383 0.0118656 -0.0381648
1818 1 0.691899 0.112034 0.0317089 6.68514 -3.26875 0.0785899 0.0449834 -0.154006
1901 1 0.721324 0.1363 0.0344664 0.156701 -3.36651 -0.0340859 0.113347 -0.219112
299 1 0.696654 0.136005 0.00933034 0.177453 -3.3197 0.244911 0.0141985 0.189625
228 1 0.787611 0.11307 0.0201308 0.114707 -3.34585 -0.0366909 0.119478 -0.235559
1822 1 0.752628 0.113382 0.0375195 0.0478794 -3.34728 -0.0407804 -0.0205853 0.0156263
303 1 0.757203 0.136703 0.0163529 0.0747294 -3.36305 -0.0338478 -0.054445 -0.199161
1905 1 0.781884 0.136938 0.0407765 0.158579 -3.3391 0.303885 0.0955183 0.0560889
232 1 0.847877 0.115068 0.0263495 0.241006 -3.37168 -0.0763306 -0.159373 -0.0283701
307 1 0.815733 0.137134 0.0229209 0.346045 -3.3667 0.33392 -0.0309024 -0.0826586
309 1 0.852526 0.137419 0.00443415 0.0859405 -3.36516 -0.165253 0.0729074 0.121912
226 1 0.822032 0.113289 0.00109224 0.111134 -3.36189 0.018263 0.118181 0.17721
1826 1 0.8139 0.113374 0.0444825 0.208994 -3.34151 -0.041852 0.322039 -0.10103
236 1 0.909353 0.11477 0.0321321 0.161821 -3.33492 -0.16695 -0.126174 0.230408
230 1 0.88224 0.114601 0.00882673 0.188946 -3.34349 0.0974347 -0.120575 -0.171383
311 1 0.879002 0.13785 0.0294321 0.102445 -3.35434 -0.186898 0.11587 -0.0187134
313 1 0.912894 0.137711 0.0114691 0.0932301 -3.3507 0.134673 0.159643 -0.15884
319 1 0.999132 0.138119 0.0420115 0.0965552 -3.34192 -0.18814 0.066353 0.16324
234 1 0.944089 0.114495 0.0144433 0.0774741 -3.36026 0.066499 0.0296372 -0.149465
240 1 0.969311 0.11471 0.0390008 0.0380601 -3.36696 0.0371288 -0.0251276 -0.0131417
315 1 0.93849 0.137343 0.0357487 0.184284 -3.3397 0.103004 0.367579 -0.0548931
317 1 0.973185 0.138388 0.0178299 0.103043 -3.37017 -0.0738267 -0.0783685 -0.167519
321 1 0.032523 0.184877 0.0237791 0.147685 -3.35448 -0.101766 0.136342 0.11818
318 1 0.00278143 0.161421 0.0204321 0.0639304 -3.341 -0.0196013 0.188993 0.0382226
30644 1 0.0375894 0.162769 0.00230377 0.110383 -3.33462 0.0328177 -0.219567 -0.071534
244 1 0.0276704 0.161713 0.0456741 0.0328968 -3.36556 0.0727949 0.138207 0.0237545
242 1 0.0630062 0.162313 0.0273014 0.0852028 -3.36085 0.00944249 0.11794 0.0742449
246 1 0.121926 0.163462 0.0335673 0.319909 -3.33433 0.0618528 0.321032 0.274638
325 1 0.0927777 0.187311 0.0308214 0.30123 -3.3182 -0.143261 -0.149017 0.0941567
30723 1 0.0664632 0.187042 0.00558009 0.137758 -3.31233 0.0752326 -0.024103 0.127357
30648 1 0.0969078 0.16383 0.00938921 0.148373 -3.33701 -0.0499719 0.00849369 -0.213786
30727 1 0.125493 0.18962 0.0119297 6.66847 -3.32923 0.0810473 -0.161548 0.102626
256 1 0.180851 0.166973 0.0397994 7.418 -3.33785 -0.0952975 -0.0487891 -0.0590602
250 1 0.155327 0.166941 0.0151061 6.98357 -3.34944 -0.0396019 0.148816 -0.0220998
329 1 0.151135 0.189983 0.0372048 7.65969 -3.37009 -0.24069 -0.134062 -0.0805573
260 1 0.196191 0.177235 0.0119221 0.264649 -3.32651 0.127147 -0.172318 0.159179
259 1 0.226146 0.153974 0.0145588 0.0944842 -3.33893 0.0211734 0.0185334 0.0527042
264 1 0.23912 0.184674 0.00958754 6.18337 -3.34099 -0.0579813 0.252897 0.120467
1858 1 0.221477 0.176093 0.0371118 0.217534 -3.33982 0.19707 -0.0397587 -0.199544
1861 1 0.252388 0.152784 0.0382723 0.183494 -3.33227 -0.163927 0.284661 0.0726245
1862 1 0.264727 0.184474 0.0335273 6.1935 -3.31786 -0.20817 0.233224 -0.0293433
263 1 0.269678 0.161998 0.0109488 6.00691 -3.31284 -0.205749 0.176893 0.0468086
268 1 0.303286 0.18978 0.0222164 2.42928 -3.30368 0.0662854 0.250909 0.126025
1865 1 0.293673 0.162222 0.0350977 1.51163 -3.30161 0.323417 -0.287698 0.0782998
267 1 0.335775 0.167593 0.0272574 9.70332 -3.35889 -0.113233 0.0706635 0.150453
272 1 0.363128 0.192324 0.0307734 5.90762 -3.32646 0.0276599 -0.0424901 -0.0285291
271 1 0.380708 0.162814 0.0244462 6.50956 -3.26068 0.101566 0.217351 0.0924218
270 1 0.386884 0.188918 0.00591061 5.88098 -3.23755 0.0253537 -0.0556777 -0.199861
269 1 0.358111 0.165327 0.00117169 6.11067 -3.21768 -0.172611 0.0309346 0.0792313
266 1 0.337337 0.192711 0.00367178 5.30009 -3.29412 -0.0398006 -0.038021 0.0339099
273 1 0.415291 0.164471 0.00379104 6.97858 -3.33039 -0.261446 0.14183 -0.0104253
276 1 0.409637 0.186063 0.0292045 6.11286 -3.27894 -0.0161741 0.267307 0.0409075
275 1 0.439016 0.163069 0.0293776 6.7816 -3.3193 0.389146 0.226031 0.0496513
280 1 0.443188 0.188574 0.0092625 6.95524 -3.30839 -0.051557 -0.142321 0.07689
279 1 0.456534 0.158062 0.00180924 0.200924 -3.31888 0.178557 0.0247037 -0.0432253
284 1 0.485349 0.182306 0.00795104 4.01206 -3.27368 -0.358271 -0.262194 -0.0661003
1881 1 0.483239 0.157548 0.0272514 0.311148 -3.32448 -0.0494325 -0.0575198 0.0799755
1878 1 0.466923 0.186633 0.0351406 6.43085 -3.34325 0.0352394 0.232409 0.0792079
1882 1 0.510206 0.180711 0.0329042 5.04708 -3.30284 0.163017 -0.165273 0.0837288
1885 1 0.530224 0.151671 0.0288509 9.06719 -3.30818 -0.0746897 0.364427 -0.00885375
1886 1 0.546081 0.179112 0.0154241 6.71074 -3.29626 -0.244582 0.0354326 0.271973
1889 1 0.57007 0.152975 0.0182233 1.43341 -3.32274 -0.0440697 -0.107886 0.165773
1892 1 0.568843 0.176924 0.0402787 2.62374 -3.27049 0.0807589 -0.0987795 -0.116225
291 1 0.605151 0.153474 -0.00013973 0.760191 -3.292 0.20169 0.257539 0.093462
1890 1 0.599292 0.17583 0.0187698 8.33936 -3.22015 0.0532209 0.315931 0.272376
296 1 0.635727 0.179631 0.00334716 0.439727 -3.32556 -0.117936 0.0220629 0.137183
1893 1 0.629646 0.155468 0.0256908 4.08506 -3.28594 0.119737 0.164129 -0.110431
1894 1 0.656711 0.180526 0.0297695 4.85114 -3.3193 0.00330643 0.19036 0.0541114
295 1 0.666105 0.158424 0.00804869 0.417561 -3.32642 -0.0289175 -0.107208 -0.191571
300 1 0.689863 0.160231 0.0321423 6.81477 -3.31369 0.154013 -0.248062 -0.123844
304 1 0.725823 0.158827 0.0123748 0.294979 -3.36446 0.080069 0.187443 0.160552
379 1 0.72155 0.183997 0.0327586 0.214326 -3.32378 0.0639476 -0.195906 0.30922
377 1 0.696571 0.182556 0.0101705 0.549712 -3.34258 -0.352893 -0.0422083 -0.303055
308 1 0.786554 0.16064 0.0192648 0.0847234 -3.3382 -0.0903582 -0.067717 -0.103632
1902 1 0.752119 0.160324 0.0372488 0.0531933 -3.3519 -0.0256698 0.224913 -0.175361
383 1 0.755956 0.183536 0.0155907 0.109712 -3.35866 0.0910369 -0.131309 -0.213452
1985 1 0.783098 0.184485 0.0400586 0.0731104 -3.36495 -0.13498 -0.086505 0.088754
1906 1 0.812782 0.161006 0.0437141 0.0278056 -3.37392 0.0359249 -0.0292904 0.0768711
312 1 0.847182 0.16093 0.0252105 0.064379 -3.35094 0.0953361 -0.165208 0.13384
387 1 0.81697 0.183465 0.0216442 0.0721213 -3.33509 -0.0252921 0.207493 0.0824049
389 1 0.851334 0.183559 0.0034463 0.102963 -3.33132 0.0732873 0.126882 -0.0452434
306 1 0.821044 0.160498 1.00146 0.182122 -3.34548 0.0669246 -0.146112 -0.3119
310 1 0.88232 0.161371 0.00684366 0.136849 -3.35583 0.0379959 -0.140799 0.218844
316 1 0.908426 0.161634 0.0323187 0.0720209 -3.36301 -0.0544786 -0.0795906 -0.0597819
391 1 0.876895 0.18429 0.0278008 0.122299 -3.35516 0.150516 -0.0141881 0.180112
393 1 0.912312 0.184552 0.0108752 0.105201 -3.36568 -0.0591216 0.0126409 -0.237725
399 1 0.997435 0.185046 0.0416047 0.117781 -3.35484 0.0206406 -0.0166886 0.137528
314 1 0.942956 0.161901 0.0137629 0.116349 -3.36171 -0.0894097 -0.307085 0.0961029
320 1 0.968507 0.161758 0.0387541 0.0477661 -3.36433 -0.107097 -0.0911243 -0.000852218
395 1 0.938268 0.184991 0.0349548 0.0604163 -3.34745 -0.0681903 -0.0210694 0.166623
397 1 0.972026 0.185326 0.0170662 0.0852094 -3.35051 0.192482 -0.0777746 0.0398854
401 1 0.0321797 0.232534 0.0246879 7.77561 -3.31475 0.109974 -0.180966 -0.0960619
398 1 0.00227889 0.208452 0.0211124 0.14198 -3.34195 -0.0242847 -0.130763 -0.194486
30724 1 0.0355679 0.209093 0.00248925 5.66882 -3.30583 0.0170451 0.0251126 0.152545
322 1 0.0613958 0.208363 0.0284828 5.944 -3.30668 -0.0810172 0.243999 -0.159961
326 1 0.120184 0.212207 0.0335415 8.33292 -3.34379 -0.0157227 0.069774 0.290421
405 1 0.074774 0.239997 0.0236512 12.138 -3.34854 0.0162646 0.0146254 -0.068185
409 1 0.108032 0.243637 0.00509708 4.86269 -3.26302 -0.0697522 -0.00630402 -0.014782
30728 1 0.0949905 0.212222 0.00978935 10.1084 -3.34235 -0.0750765 0.218449 0.0376568
335 1 0.167039 0.199651 0.00985044 6.78023 -3.27137 -0.0214308 -0.127412 -0.0438479
336 1 0.163662 0.222498 0.0303716 6.70255 -3.27981 0.0134303 -0.153334 0.207479
330 1 0.138571 0.222367 0.00717633 7.24611 -3.23425 -0.0783846 -0.107738 0.134034
411 1 0.131964 0.243453 0.029376 1.89989 -3.26278 -0.0818068 -0.0484053 0.150783
1937 1 0.192415 0.199508 0.0344336 0.0761042 -3.29018 -0.0482556 -0.039221 -0.141941
339 1 0.207707 0.209311 0.00774589 9.5208 -3.28944 0.15354 -0.0579618 0.0171381
340 1 0.204119 0.231901 0.0280474 7.3822 -3.28637 0.0473183 -0.12996 -0.00146856
344 1 0.242127 0.235174 0.0158954 1.55924 -3.31712 -0.101861 -0.029291 -0.0866128
1941 1 0.23371 0.207153 0.031252 6.2402 -3.33287 0.273398 0.0922413 -0.108089
343 1 0.273358 0.212512 0.0183201 1.68705 -3.34037 -0.327942 -0.0171902 0.271449
348 1 0.3005 0.238307 0.0224576 0.156229 -3.32063 0.0971542 -0.170588 0.00327541
1942 1 0.268337 0.235882 0.0409937 2.29332 -3.3297 -0.0982997 -0.0971025 0.121355
1945 1 0.298369 0.213054 0.0455023 5.8472 -3.34069 0.0636129 0.0494008 -0.0839328
347 1 0.331246 0.214374 0.0260315 0.200066 -3.32072 -0.228009 0.0038441 0.0444286
346 1 0.334313 0.238581 0.00475383 0.226074 -3.33331 -0.0198593 0.166754 -0.174173
349 1 0.36543 0.2157 0.00792957 1.41781 -3.30309 0.0999227 0.133327 -0.0654269
352 1 0.35827 0.239199 0.0298056 0.260971 -3.31849 0.143584 -0.00536607 0.0647271
351 1 0.391865 0.216343 0.0350857 7.15909 -3.33313 -0.0142065 -0.0443244 -0.184064
356 1 0.392246 0.239214 0.0120441 1.10638 -3.31767 0.0767895 0.248228 0.00530742
355 1 0.415465 0.212296 0.00999451 6.12378 -3.25308 -0.0137656 0.0531046 0.102473
1954 1 0.419056 0.240559 0.0394386 6.38613 -3.32157 0.0593858 0.0889378 -0.0579042
360 1 0.443358 0.235921 0.0155241 5.60267 -3.24462 -0.169327 0.23091 -0.297832
1957 1 0.437108 0.211373 0.0350255 5.50064 -3.2912 -0.121925 -0.133093 -0.184476
1958 1 0.465803 0.234346 0.038689 6.09432 -3.26846 0.272693 -0.0312915 0.106613
359 1 0.471162 0.211691 0.0150625 6.30176 -3.31746 0.0691907 0.0538982 0.112299
1961 1 0.497258 0.210173 0.0406183 7.38254 -3.34769 -0.138806 0.0506268 -0.0127599
364 1 0.501667 0.23375 0.0197256 6.80914 -3.36297 -0.00905599 0.104514 0.0500569
363 1 0.515265 0.203798 0.0129091 7.18231 -3.29739 -0.161101 -0.0212513 0.0495459
1962 1 0.52696 0.231957 0.0463425 5.67526 -3.32838 0.10296 0.387908 -0.218336
368 1 0.544482 0.225692 0.0158483 7.52225 -3.33221 0.0448304 0.158354 -0.0731305
1965 1 0.541091 0.202024 0.0377932 7.31033 -3.31298 -0.0903897 0.103875 -0.0946373
1969 1 0.577229 0.202407 0.022074 6.24365 -3.30232 0.0375498 -0.0927598 -0.242237
447 1 0.572455 0.251333 0.0170016 1.7793 -3.34764 -0.0616239 0.0133133 -0.355727
1966 1 0.569464 0.226886 0.0392512 5.44881 -3.25303 0.0330311 0.0846897 -0.13746
371 1 0.605994 0.202378 -0.000782279 0.763308 -3.34954 -0.0719161 0.138918 0.118894
1970 1 0.602954 0.227653 0.0200352 5.80721 -3.28455 -0.135462 0.199288 -0.0153365
376 1 0.637014 0.227845 0.00152999 0.0681371 -3.32159 -0.0249209 0.168746 -0.132844
1973 1 0.632073 0.205898 0.0223204 5.71649 -3.22425 -0.0225473 -0.262189 0.21772
455 1 0.661705 0.228451 0.0260511 0.254849 -3.30389 -0.177704 0.281151 0.104974
2053 1 0.624977 0.227814 0.0451113 3.68307 -3.30382 0.238781 0.0618137 -0.150341
375 1 0.665005 0.204237 0.00481297 0.440098 -3.32675 0.317704 -0.0407709 0.228266
380 1 0.690661 0.20706 0.0290507 0.414556 -3.32299 0.0287013 -0.275831 0.16174
378 1 0.726635 0.206686 0.0114938 0.118465 -3.33865 -0.0314281 0.0249084 -0.0769184
459 1 0.722487 0.23087 0.0315505 0.203522 -3.35191 -0.119428 0.0819861 -0.0285524
457 1 0.695487 0.229587 0.0075657 6.7253 -3.3094 0.278928 -0.0953405 -0.00993146
384 1 0.752052 0.207175 0.0363683 0.156799 -3.3399 0.187252 0.115404 -0.0900155
388 1 0.786475 0.206643 0.0178099 0.103941 -3.36027 -0.0812441 0.128367 0.0272295
463 1 0.783147 0.231039 0.0388176 0.123498 -3.34703 -0.122626 0.168091 -0.137425
461 1 0.756054 0.23053 0.0134467 0.0986432 -3.35783 0.0581947 0.0131564 0.172996
392 1 0.84714 0.206798 0.0241357 0.177943 -3.34186 -0.0919307 0.279589 0.180212
467 1 0.816073 0.230648 0.0207116 0.113037 -3.3393 0.126731 0.171633 0.0112011
1986 1 0.812708 0.207912 0.0423191 0.053676 -3.35287 0.0921271 -0.0450864 0.126553
469 1 0.850402 0.230303 0.00259343 0.139597 -3.34815 0.158306 0.301174 0.0656964
2069 1 0.842389 0.23169 0.0448749 0.0929418 -3.35005 0.138755 0.0275873 -0.09661
390 1 0.881087 0.207952 0.00671238 0.127341 -3.33955 0.179443 -0.143215 -0.0574846
396 1 0.907233 0.208099 0.0312672 0.0220528 -3.34535 -0.0275179 -0.0457838 0.0571742
471 1 0.877268 0.231465 0.0272757 0.0543464 -3.3653 -0.158861 -0.00727923 -0.0332511
473 1 0.912486 0.23067 0.00968276 0.147876 -3.3405 -0.240687 0.214561 -0.188239
394 1 0.941871 0.208077 0.0135324 0.0398756 -3.34142 0.135874 -0.0130917 -0.00570572
400 1 0.967129 0.208869 0.0387415 0.11054 -3.34332 -0.00479426 -0.193071 -0.118711
475 1 0.936755 0.231581 0.0345673 0.0690221 -3.35212 0.12351 0.055677 0.00636382
479 1 0.997012 0.230658 0.0422246 0.308316 -3.30508 -0.053359 0.302536 -0.00581189
477 1 0.972506 0.231766 0.0170538 0.10226 -3.34636 -0.167977 -0.113117 -0.0300556
402 1 0.0433922 0.264921 0.0205878 11.4322 -3.33707 -0.0191639 -0.109164 0.118142
481 1 0.012964 0.288596 0.0170239 10.9628 -3.31472 0.0790467 0.132041 -0.111467
478 1 0.00236253 0.254934 0.0212525 7.43315 -3.29988 -0.0949746 0.0966256 -0.151373
412 1 0.102108 0.266343 0.0264488 4.9592 -3.25877 -0.0631046 -0.226532 -0.0256489
406 1 0.0772431 0.264944 0.00258728 7.47255 -3.30219 0.0264041 0.16234 0.0964414
487 1 0.0718507 0.289189 0.0245123 5.28633 -3.27116 -0.0184321 -0.130001 -0.0615901
491 1 0.114245 0.297073 0.0226736 4.60058 -3.31118 0.052544 0.0364629 -0.00327028
410 1 0.120718 0.27544 0.00103662 6.81884 -3.33729 -0.233368 0.269042 -0.128518
415 1 0.173994 0.253432 0.0275797 9.40567 -3.27997 0.0602439 0.0544643 0.00973851
416 1 0.144331 0.275361 0.0259438 7.1977 -3.3013 -0.0228559 0.129914 -0.115322
413 1 0.150536 0.25377 0.00354821 8.75225 -3.30112 0.11655 -0.0671134 -0.0703648
420 1 0.179199 0.279634 0.00925812 0.11281 -3.29338 0.0950852 0.00815078 -0.15405
419 1 0.210316 0.25866 0.0122161 6.21263 -3.30683 0.140914 -0.16132 -0.183092
2021 1 0.236043 0.257771 0.0371932 1.0505 -3.33848 0.155924 0.131954 0.0822834
424 1 0.238473 0.283336 0.0160835 0.137425 -3.34831 -0.0639591 -0.0773357 0.153429
2018 1 0.20497 0.280307 0.0344161 0.483858 -3.31494 0.249032 0.00916942 0.0167716
2022 1 0.263707 0.283734 0.0411424 0.230479 -3.33423 -0.111831 -0.0836291 0.137181
423 1 0.269938 0.260649 0.0195578 0.0716736 -3.32969 -0.0948394 -0.0357379 -0.0973987