ITEM: TIMESTEP
6000
ITEM: NUMBER OF ATOMS
32000
ITEM: BOX BOUNDS pp pp pp
2.4265050036310636e+00 7.8573494996363777e+01
-8.9147640108624415e-01 8.1891476401080809e+01
-8.9303123409739982e-01 8.1893031234092774e+01
ITEM: ATOMS id type xs ys zs c_csym c_peratom fx fy fz
8 1 0.0500016 0.0250423 0.024995 0.00887798 -3.35314 -0.0344878 0.0262485 -0.0739668
83 1 0.0250275 0.0503303 0.0247703 0.024693 -3.34955 -0.0539149 -0.103361 0.0829973
1602 1 0.0244792 0.02485 0.049621 0.0416186 -3.34775 0.127443 0.0417491 0.080003
1685 1 0.049742 0.0499474 0.0501563 0.0287478 -3.34789 0.00956388 -0.0238374 -0.0578974
12 1 0.0999018 0.0252278 0.0252512 0.0456301 -3.34582 0.0356127 -0.0652155 -0.0120831
87 1 0.0750872 0.0499179 0.0252159 0.00962918 -3.34932 -0.0463822 0.0343232 -0.057093
1606 1 0.0745582 0.0247329 0.049896 0.0426714 -3.34849 0.115382 -0.00216431 0.0183781
1689 1 0.100143 0.0498843 0.0505613 0.0664089 -3.34021 0.00512275 -0.0518516 -0.197578
6 1 0.0754944 0.0251001 -7.39517e-05 0.022316 -3.34961 -0.0557879 0.069287 0.0303515
7 1 0.075058 3.10336e-05 0.0247638 0.0220592 -3.34101 0.0662543 -0.0300166 0.0561586
16 1 0.149838 0.0250164 0.0247751 0.0227239 -3.34812 0.148315 -0.034286 -0.0145896
91 1 0.125216 0.0496661 0.0249653 0.0310197 -3.34217 -0.0464379 0.123069 0.0131446
1610 1 0.125426 0.025163 0.0498489 0.0423578 -3.34085 -0.105528 -0.0717128 -0.010047
1693 1 0.150239 0.0500248 0.0499685 0.0187959 -3.33937 0.00766885 -0.038184 -0.0142223
93 1 0.149819 0.0498163 -0.000431737 0.0254156 -3.34524 0.0656378 0.0380418 0.0532794
1613 1 0.150239 -0.000264903 0.049501 0.053804 -3.35146 -0.0263416 0.0429205 0.105402
11 1 0.124714 5.83696e-05 0.0248 0.0466192 -3.34103 0.0589883 -0.002517 0.0601178
20 1 0.200566 0.0245706 0.0250183 0.0609508 -3.35161 -0.165523 0.0822105 -0.00979111
95 1 0.174869 0.0502304 0.0244489 0.0682712 -3.35899 0.0120368 -0.135568 0.0956399
1614 1 0.175127 0.024905 0.049921 0.0115806 -3.35389 -0.052618 -0.0270022 -0.0673172
1697 1 0.199924 0.0495318 0.0496611 0.0577631 -3.34974 -0.00449054 0.0686038 0.0820631
15 1 0.17497 -0.000194912 0.0246821 0.0129875 -3.35463 0.0646438 0.0434055 0.0400904
14 1 0.175417 0.0249006 -0.000260717 0.0255925 -3.35005 -0.0791529 -0.00675195 0.103783
1617 1 0.199867 -0.000264437 0.0499027 0.0189574 -3.34568 -0.00586727 0.0533332 0.00175789
24 1 0.249717 0.0249204 0.0250152 0.02884 -3.34375 0.0721919 0.0175857 0.00617695
99 1 0.225042 0.050204 0.0254225 0.0549153 -3.33506 0.0633247 -0.113018 -0.0628227
1618 1 0.225394 0.0247397 0.0498729 0.0407905 -3.34226 -0.108573 0.0476724 0.0896901
1701 1 0.250145 0.0496675 0.0505622 0.0555877 -3.34128 -0.0740768 0.0894889 -0.101625
103 1 0.274771 0.0499536 0.0254184 0.0208217 -3.34822 0.00225708 -0.0372419 -0.0714353
1622 1 0.274728 0.0250032 0.0503036 0.0134438 -3.34921 0.0719988 -0.0779298 -0.0586496
19 1 0.225159 -0.000244474 0.0249073 0.0110325 -3.33411 -0.0420816 -0.0164604 -0.00389553
22 1 0.275227 0.0246495 0.000227777 0.0291079 -3.34167 -0.0439321 0.0828524 -0.0164273
1621 1 0.249952 -0.000358602 0.0500183 0.0210182 -3.3388 0.0541595 0.0471878 0.0105065
28 1 0.299919 0.0249093 0.0253911 0.0101067 -3.34797 -0.00498982 -0.0178505 -0.0253192
1705 1 0.299867 0.0500506 0.0502931 0.00505669 -3.34735 -0.0138885 -0.0155693 -0.00421007
107 1 0.324776 0.0501988 0.0252147 0.016676 -3.3489 0.0347522 -0.108604 -0.00758373
1626 1 0.324618 0.0251625 0.0501646 0.0158782 -3.34475 0.0666988 -0.0154236 -0.0285957
26 1 0.324722 0.0246386 0.000122982 0.0290765 -3.35291 0.0638059 0.0932008 0.0147933
27 1 0.32486 -0.000143256 0.0252085 0.0153826 -3.3503 0.0427261 0.0465027 -0.0470648
32 1 0.349816 0.0252591 0.0249349 0.0204017 -3.35962 0.00994742 -0.0421683 -0.015814
1709 1 0.350167 0.0503578 0.0500868 0.0291149 -3.34117 -0.0954904 -0.108758 -0.0309246
111 1 0.375383 0.0499408 0.025036 0.0417416 -3.34333 -0.0852352 -0.0164337 -0.0660979
1630 1 0.374742 0.0250819 0.0499153 0.00542832 -3.33426 0.0168025 -0.0355367 0.025889
31 1 0.374904 -0.000182409 0.0252064 0.0175483 -3.35394 -0.0117827 0.0238012 -0.061802
30 1 0.375158 0.0253623 -0.000109452 0.0237419 -3.35592 -0.0356512 -0.0690835 0.0526214
36 1 0.399869 0.0248699 0.0251265 0.0135428 -3.34695 0.0315404 -0.00309434 -0.0465112
1713 1 0.399706 0.0497728 0.0501242 0.0393431 -3.33848 0.141714 0.0599107 -0.0359983
115 1 0.424733 0.0502065 0.0249193 0.0327881 -3.35304 0.0120161 -0.0474132 0.0365977
1634 1 0.425066 0.0249631 0.0498987 0.00876807 -3.35254 -0.0191232 0.00435874 -0.0322426
113 1 0.400261 0.0502866 -0.000381832 0.0474314 -3.33809 0.00356863 -0.10417 0.112413
34 1 0.424764 0.0247815 -2.27513e-05 0.0282615 -3.34912 0.0198428 0.0515245 -0.0329068
35 1 0.424937 -2.85457e-05 0.0248672 0.0115659 -3.35294 -0.0161496 -0.0126154 0.0163608
40 1 0.449887 0.0248188 0.0244305 0.0461853 -3.34811 0.00303415 -0.0095866 0.123357
1717 1 0.45008 0.0501653 0.0496079 0.0217764 -3.34634 -0.0368945 -0.0604803 0.0197751
119 1 0.474803 0.0498706 0.0248585 0.0238998 -3.34215 0.0377287 0.0628639 0.0282812
1638 1 0.474952 0.0248234 0.0497186 0.0201181 -3.34747 -0.00286372 0.0136201 0.0446539
117 1 0.449698 0.0500473 0.000335429 0.0521296 -3.34857 0.0586594 -0.064968 -0.131263
1637 1 0.45 0.000150492 0.0500329 0.0139189 -3.34673 0.0130915 -0.0443498 -0.089868
38 1 0.475194 0.0245795 0.000110326 0.0449109 -3.33843 -0.0800952 0.0891305 -0.0576858
1721 1 0.49967 0.0499388 0.0504716 0.0529549 -3.34833 0.0529664 0.0584973 -0.123789
44 1 0.499797 0.0253129 0.0251128 0.0362184 -3.34276 0.0906128 -0.0785008 -0.00228102
123 1 0.524712 0.0502219 0.0248925 0.0226962 -3.34727 -0.0534312 -0.0071623 0.0763009
1642 1 0.524895 0.0250841 0.0500226 0.00890413 -3.3432 0.00319431 -0.0406643 0.0149342
48 1 0.549445 0.0251429 0.0251659 0.0503186 -3.34393 0.151079 -0.117114 -0.0274929
1725 1 0.549856 0.0498798 0.049945 0.0141869 -3.34267 -0.0538444 0.098385 0.034031
43 1 0.52498 -6.06982e-05 0.0249568 0.00794216 -3.34606 -0.0121186 -0.0295199 0.0370461
45 1 0.549913 -0.000495763 0.000188064 0.0207949 -3.34137 0.0208506 0.0990658 -0.0246083
42 1 0.524929 0.0248912 0.000186961 0.00736238 -3.3451 -0.0620767 -0.00597266 -0.0190462
127 1 0.574661 0.0498744 0.0250334 0.00908838 -3.34535 0.009218 0.0372511 0.0433093
1646 1 0.57485 0.0252041 0.0500138 0.0271082 -3.34807 0.0436021 -0.138476 -0.0966171
52 1 0.600217 0.0252219 0.024929 0.0492178 -3.35231 -0.0956029 -0.145634 0.026267
1729 1 0.599976 0.0499073 0.0500857 0.0111059 -3.33861 -0.048213 0.104561 -0.0578482
46 1 0.574832 0.0246532 1.3633e-05 0.0191426 -3.35381 -0.00139664 -0.00499236 0.046627
129 1 0.599308 0.0498086 0.000249569 0.0573884 -3.35451 0.118102 0.005227 -0.105151
131 1 0.625298 0.0496519 0.0250113 0.0401434 -3.34686 -0.0418127 0.131177 -0.0252583
1650 1 0.6248 0.0252175 0.0500571 0.0252747 -3.33956 0.0830282 -0.108426 -0.0308228
56 1 0.650283 0.0251275 0.0249631 0.0271659 -3.33889 -0.0484457 -0.0686322 0.0496006
1733 1 0.649959 0.0501161 0.0503542 0.0367792 -3.34701 0.0761275 -0.0246924 -0.0841884
1653 1 0.649702 0.000425446 0.0498054 0.0632882 -3.35782 0.0642401 -0.0947604 0.10106
50 1 0.625447 0.0247084 0.000219378 0.0489708 -3.35135 -0.150371 0.0846281 -0.0991629
133 1 0.650118 0.0499373 -0.0003641 0.0274738 -3.34689 -0.0152061 0.0657232 0.0338266
135 1 0.675013 0.0497101 0.0248915 0.0147415 -3.33392 -0.0133835 0.0543815 -0.000632764
1654 1 0.674968 0.025178 0.0502655 0.0254771 -3.34568 -0.0473072 -0.0623907 0.0653928
60 1 0.699484 0.024592 0.0251579 0.0555102 -3.33882 0.114282 0.0589942 -0.0766196
1737 1 0.699756 0.0495745 0.0500703 0.0245838 -3.34304 0.0889664 0.0879332 0.0365193
54 1 0.67496 0.0250891 -2.14577e-05 0.0121106 -3.3439 -0.0251155 -0.0852151 -0.00783356
57 1 0.69996 -0.000220094 -0.000196196 0.0248999 -3.35475 0.043833 0.0548949 0.068065
139 1 0.724501 0.0497186 0.0248232 0.0436968 -3.34895 0.0190803 -0.00964726 0.0511072
1658 1 0.724955 0.025114 0.050104 0.0188416 -3.34399 -0.0132785 -0.0372386 0.0106015
64 1 0.74997 0.0248812 0.025327 0.0177024 -3.34184 -0.0265302 0.00806448 -0.0191238
143 1 0.775011 0.0501483 0.0248574 0.0352054 -3.348 -0.00516995 -0.057696 0.0690451
1662 1 0.774933 0.0249122 0.0497316 0.0168243 -3.35089 0.0192819 -0.00409901 0.0790367
1741 1 0.749748 0.0499485 0.0499896 0.0194182 -3.3463 0.0910181 -0.000566801 -0.0148258
63 1 0.774977 -7.13089e-05 0.0251034 0.00413111 -3.34649 -0.00488693 0.00750616 0.0469255
1661 1 0.749845 2.18413e-06 0.0506458 0.0575512 -3.34614 -0.00485828 0.00495188 -0.171776
141 1 0.749636 0.0498362 0.000347281 0.0219972 -3.34265 0.0279438 0.0117107 -0.0354904
58 1 0.725218 0.0246216 0.000216167 0.0407907 -3.35319 -0.123014 0.0380243 -0.0354816
68 1 0.800053 0.0247416 0.0251105 0.0199358 -3.33894 -0.0325669 0.0575978 -0.0808146
147 1 0.825169 0.0499954 0.0252991 0.0260618 -3.34494 -0.0449275 0.062983 -0.105382
1666 1 0.824663 0.025084 0.0498787 0.026307 -3.33643 0.0972402 -0.0314117 0.0728227
1745 1 0.799956 0.0498904 0.0496619 0.0218471 -3.34274 0.0341356 0.0579949 0.0316236
67 1 0.825047 0.000181066 0.025027 0.0173672 -3.3469 -0.00118003 -0.108105 -0.0367199
72 1 0.849576 0.0249701 0.0250284 0.0229047 -3.33335 0.0783039 -0.013514 -0.0247029
151 1 0.874543 0.0498113 0.0250314 0.0366799 -3.3478 0.137427 0.0190847 0.0207827
1670 1 0.875019 0.0246011 0.0498742 0.0393576 -3.34702 0.0269629 0.133637 0.0365343
1749 1 0.850064 0.0499918 0.0499588 0.0127868 -3.34541 0.0153379 -0.0527062 0.0683953
71 1 0.874891 0.00044766 0.0248672 0.0395705 -3.35507 -0.0328145 -0.14224 0.00868124
70 1 0.874838 0.0248438 -0.000106224 0.0104923 -3.34602 -0.0464329 0.042225 -0.0291797
76 1 0.899824 0.0251046 0.0245676 0.0349652 -3.33963 0.0185468 -0.0116041 0.121336
155 1 0.9248 0.0498168 0.025032 0.0104443 -3.35145 0.0588404 0.0294907 0.0350458
1674 1 0.924555 0.0246713 0.0499533 0.0396385 -3.35233 0.136481 0.112475 0.0444652
1753 1 0.900149 0.0497612 0.0500855 0.0210345 -3.35051 -0.0764481 0.00058311 -0.034446
1681 1 0.99969 0.0498954 0.0499125 0.00880586 -3.34383 0.0815968 -0.0102262 -0.017422
4 1 0.999907 0.0248281 0.0247329 0.0231228 -3.3486 -0.0520572 0.104376 0.0102067
80 1 0.949932 0.0247504 0.0250469 0.0185685 -3.34777 0.0340163 0.102548 0.0232794
159 1 0.974617 0.0501841 0.0252158 0.0324168 -3.35003 0.0888655 -0.0875246 -0.078602
1678 1 0.975196 0.0249995 0.0501452 0.0233452 -3.33969 -0.0354678 -0.0474119 -0.0795987
1757 1 0.950225 0.0498264 0.0501537 0.0218323 -3.35093 -0.168399 -0.0587068 0.0209285
88 1 0.0497343 0.0750943 0.0251486 0.0189017 -3.34244 0.109399 0.00979554 0.0216643
163 1 0.0249758 0.100364 0.0250005 0.0255265 -3.34458 0.0448228 -0.0640477 0.0103315
1682 1 0.0246064 0.0748913 0.0499226 0.0210464 -3.34812 0.0647797 0.0279541 0.047571
1765 1 0.0501138 0.0999956 0.0498341 0.0200041 -3.35518 -0.0515971 0.0047189 -0.00140189
161 1 0.000154764 0.100024 0.000149347 0.0144936 -3.35123 -0.0449776 0.0400728 -0.0791401
92 1 0.10014 0.0747566 0.025377 0.0357921 -3.35417 0.0604123 0.0602861 -0.0902196
167 1 0.0751101 0.0999462 0.0250122 0.0146144 -3.35032 -0.0111767 -0.032832 0.0669091
1686 1 0.0751468 0.0745563 0.0500656 0.0305984 -3.34931 -0.0119464 0.124666 -0.0201208
1769 1 0.100491 0.100224 0.050292 0.0584725 -3.35483 -0.145474 -0.0497817 -0.0808165
96 1 0.149652 0.0749802 0.0250401 0.0446448 -3.34934 0.073821 0.00418913 -0.117137
171 1 0.124834 0.100347 0.0249065 0.0473549 -3.34167 -0.00282131 -0.0964055 -0.00661308
173 1 0.149935 0.0997149 0.000129405 0.0350536 -3.35163 0.00757144 0.0747729 -0.0517638
1690 1 0.125214 0.0749872 0.0498498 0.0187747 -3.33907 -0.0622189 -0.0134273 0.0574564
1773 1 0.149999 0.0995812 0.0497226 0.0461672 -3.3423 0.0150081 0.147587 0.0113364
90 1 0.125096 0.0750625 -0.0003624 0.0231094 -3.33935 -0.0233497 0.00446031 0.135113
100 1 0.200329 0.0746645 0.025228 0.0428769 -3.33903 -0.0905567 0.0729018 -0.0134785
175 1 0.175517 0.0998702 0.0249457 0.0412442 -3.34532 -0.140427 -0.0511683 -0.047155
1694 1 0.174848 0.0748605 0.0498774 0.0211912 -3.3395 0.0505049 -0.0059282 -0.0509337
1777 1 0.199697 0.100199 0.0497781 0.0432042 -3.34238 0.158617 -0.124109 0.102032
177 1 0.200175 0.0997866 5.73191e-05 0.0100317 -3.34518 0.0127705 -0.00183764 -0.0357871
104 1 0.249843 0.0750026 0.0250315 0.0203889 -3.35001 0.0538064 0.000355491 0.0523731
179 1 0.224864 0.0999183 0.0252395 0.0142621 -3.34954 0.0567147 0.025735 -0.0406231
1698 1 0.225241 0.0748722 0.0504587 0.0524669 -3.33931 -0.118623 0.00960095 -0.12809
1781 1 0.249922 0.0996653 0.0501659 0.0223848 -3.35126 0.0203833 0.101167 -0.0535163
183 1 0.275144 0.100056 0.0249388 0.0151944 -3.35081 -0.0365883 -0.0751204 0.030932
1702 1 0.275118 0.0748064 0.0500867 0.0216712 -3.347 -0.059357 0.0582596 -0.0187853
108 1 0.299869 0.0748106 0.0248189 0.0241175 -3.33726 -0.0429147 0.0480981 0.107567
1785 1 0.300065 0.0998781 0.0501998 0.0143929 -3.34904 -0.0389975 -0.0144967 -0.0290516
187 1 0.324803 0.0996365 0.0249015 0.0308717 -3.35374 0.0668319 0.0410747 0.0378676
1706 1 0.324965 0.075063 0.0501135 0.00700749 -3.34869 -0.0325762 0.00468448 -0.0170952
185 1 0.299948 0.0999906 -0.000212146 0.0293933 -3.34487 -0.0463906 -0.0513951 0.0474944
106 1 0.324785 0.0748074 0.000371583 0.0296449 -3.33634 0.0482017 0.0305017 -0.0761472
112 1 0.35012 0.0747199 0.0251563 0.0218827 -3.3456 0.0134144 0.084156 -0.00442078
1789 1 0.350257 0.100045 0.0498985 0.023593 -3.35214 -0.0187519 -0.11117 0.0323505
189 1 0.350363 0.0998842 0.000377589 0.0393023 -3.34813 -0.0781866 0.0172673 -0.0651206
191 1 0.375147 0.100132 0.0249449 0.0130237 -3.33935 0.0349588 -0.0634746 0.0145783
1710 1 0.375188 0.0746913 0.0501581 0.0401508 -3.34993 0.00972885 0.172903 -0.0167185
116 1 0.399763 0.0750022 0.0245418 0.0414696 -3.34761 0.0599709 0.0250524 0.093997
1793 1 0.399816 0.100115 0.0496473 0.0410275 -3.34955 -0.00167163 -0.0543229 0.127884
195 1 0.424601 0.100029 0.0252673 0.0733026 -3.35871 0.0852027 0.0312201 -0.155755
1714 1 0.425011 0.0749347 0.0498249 0.0159337 -3.35461 -0.0516305 0.000491478 -0.0135221
120 1 0.450225 0.0754332 0.0247148 0.045478 -3.34468 -0.0588661 -0.0673903 0.0900493
1797 1 0.45001 0.0998918 0.0499123 0.0176803 -3.35547 0.0365444 0.0681468 0.00383067
199 1 0.475292 0.100272 0.0247425 0.0362433 -3.33582 -0.0467305 -0.0474934 0.120154
1718 1 0.474957 0.0751733 0.0500094 0.0110685 -3.34041 -0.00778975 0.0108471 -0.031997
1801 1 0.499864 0.100168 0.0501375 0.00748956 -3.35093 -0.0258505 0.0305572 -0.00101721
124 1 0.499647 0.0749634 0.025187 0.0218725 -3.34747 0.0435392 -0.0224735 -0.0330853
203 1 0.52455 0.100166 0.0250289 0.0168498 -3.34232 0.0425398 0.00926597 0.0373469
1722 1 0.524811 0.0752177 0.0500707 0.00941863 -3.35261 -0.0338719 -0.080576 0.0310048
128 1 0.54956 0.0751269 0.0251305 0.012706 -3.34505 0.0888345 -0.0169704 -0.0298222
1805 1 0.549948 0.100005 0.0497944 0.0275713 -3.34906 -0.0391923 0.0843291 0.0742985
205 1 0.549427 0.100261 0.000207822 0.0388878 -3.34032 0.0892772 -4.92152e-05 0.0555264
207 1 0.575173 0.0999916 0.0251228 0.0305434 -3.34711 -0.0752836 0.0075797 -0.0934195
1726 1 0.574635 0.0751934 0.0501778 0.023314 -3.3475 0.0493146 -0.109232 -0.0395698
132 1 0.599805 0.0746718 0.0249673 0.0246996 -3.34752 0.00579689 0.0215873 0.0429336
1809 1 0.59965 0.0997599 0.0499075 0.0299555 -3.34653 0.0567016 0.0487588 0.0760813
211 1 0.624888 0.0998932 0.0250159 0.00927859 -3.34746 0.0210536 -0.0281442 0.0270021
1730 1 0.624957 0.0750929 0.0498673 0.0186279 -3.35827 0.00102194 -0.0168122 0.00711106
136 1 0.650416 0.0746284 0.0246491 0.0528735 -3.35252 -0.0958017 0.0481625 0.0696149
1813 1 0.650581 0.0996511 0.049795 0.0624109 -3.34094 -0.166496 0.0466768 0.011404
213 1 0.650082 0.100081 -2.37901e-05 0.0163993 -3.35494 -0.0551035 -0.0558985 -0.0210691
215 1 0.675083 0.0996741 0.0252768 0.0402849 -3.34207 0.0206055 0.0938873 -0.0856552
1734 1 0.675456 0.0744937 0.0498078 0.0627948 -3.34319 -0.0769381 0.0415195 0.0864031
140 1 0.699695 0.074631 0.0243825 0.0919445 -3.34252 0.106048 0.0518639 0.145766
1817 1 0.700016 0.0995098 0.050103 0.0320492 -3.34275 -0.0338257 0.0766903 -0.0562895
217 1 0.699992 0.100331 0.000314255 0.0491369 -3.34277 0.0105627 -0.0892161 -0.0882492
134 1 0.675146 0.075252 -0.000390348 0.043096 -3.34232 -0.0669763 -0.060178 0.0024451
219 1 0.724969 0.0998493 0.0253155 0.0351089 -3.34666 -0.0297024 0.0196847 -0.0652744
1738 1 0.724963 0.0746822 0.0499389 0.0145754 -3.34907 -0.0770996 0.0115289 0.0401133
144 1 0.749599 0.0745987 0.0253537 0.0550541 -3.34816 0.110794 0.0980036 -0.057689
223 1 0.775119 0.0996789 0.0252732 0.0406107 -3.35236 -0.0152802 0.0474405 -0.0455744
1742 1 0.775362 0.0748155 0.0502285 0.0355689 -3.34222 -0.129973 0.00736625 -0.136008
1821 1 0.749914 0.100154 0.0498766 0.0455977 -3.34559 0.0406678 -0.106379 0.059483
138 1 0.725201 0.0753685 1.59516e-05 0.0685286 -3.34758 -0.0139777 -0.0764983 0.0131621
148 1 0.800146 0.0751384 0.024884 0.0225203 -3.35075 0.0210854 -0.0476478 0.0602003
227 1 0.825 0.100063 0.0248859 0.0107649 -3.35359 0.0363539 -0.0253957 0.0385263
1746 1 0.825461 0.0750357 0.0501556 0.0359594 -3.34874 -0.110395 -0.0174408 -0.133485
1825 1 0.799969 0.0999037 0.0503017 0.0427158 -3.33564 0.0884619 0.0204436 -0.187917
225 1 0.799939 0.100179 -6.18616e-05 0.0167707 -3.34035 -0.0779021 -0.0937801 -0.00886649
152 1 0.85016 0.075159 0.0248475 0.0215544 -3.34209 -0.0534622 -0.0200511 0.0224488
231 1 0.875131 0.0998882 0.0249563 0.00350853 -3.34326 -0.0149975 0.0697787 0.0222186
1750 1 0.87496 0.0747652 0.0499552 0.0158415 -3.34554 0.00349082 0.0415162 0.0280121
1829 1 0.850205 0.100081 0.0500201 0.021035 -3.34354 0.016169 -0.0349684 -0.0893134
156 1 0.899699 0.075179 0.0252415 0.0442445 -3.33701 0.0528657 -0.150619 -0.0586143
235 1 0.92482 0.0998099 0.0249351 0.0116814 -3.34333 0.043915 0.0233595 -0.018672
1754 1 0.924873 0.0748963 0.0498204 0.0182004 -3.34672 3.52678e-05 -0.0270633 0.115083
1833 1 0.899949 0.0998915 0.0501189 0.00566355 -3.35445 -0.0357809 0.00464368 0.051054
233 1 0.899907 0.0997337 -0.000285778 0.0264643 -3.34881 0.0286545 0.0591015 0.000210355
1761 1 0.999958 0.0998517 0.0498814 0.0105943 -3.34453 -0.00331434 -0.00814964 0.0720615
84 1 0.999872 0.0752493 0.0249589 0.00824364 -3.33986 0.0221898 -0.0569985 0.0396572
160 1 0.94973 0.074845 0.0251542 0.0122036 -3.33788 0.0211027 0.00267929 -0.0291482
239 1 0.974738 0.0999205 0.0252001 0.0153128 -3.34964 0.0214444 0.0413856 -0.0246812
1758 1 0.974862 0.0747889 0.0500806 0.0113903 -3.33692 -0.00828412 0.0957208 -0.00671487
1837 1 0.949724 0.0999951 0.0499065 0.0178265 -3.34897 0.0395605 -0.0490995 0.0727827
237 1 0.950019 0.0994766 -0.00013587 0.0373834 -3.33556 -0.0582431 0.0883336 0.044882
158 1 0.974944 0.0753668 0.000314721 0.0533957 -3.34168 -0.0242407 -0.140023 -0.117974
162 1 0.0252825 0.125216 -0.000264753 0.0405662 -3.34505 -0.0540695 -0.0665128 0.0749332
168 1 0.0499088 0.125098 0.0247334 0.0207637 -3.33857 0.00697268 -0.046367 0.0978475
243 1 0.025069 0.150021 0.0253119 0.0201642 -3.34643 -0.0786198 0.013499 -0.0859908
1762 1 0.02503 0.125044 0.05013 0.0101664 -3.35115 0.0519881 -0.0155911 -0.00423886
1845 1 0.0502522 0.150243 0.0498401 0.0339117 -3.34259 -0.0578903 -0.0700656 0.0933503
245 1 0.0500636 0.150263 0.0002027 0.0362807 -3.34362 -0.0561418 0.00335295 -0.081176
172 1 0.0996738 0.124697 0.0251053 0.0581663 -3.34808 0.114412 0.109555 0.00601021
247 1 0.0750624 0.149872 0.0249082 0.0138398 -3.33686 0.0391793 0.087244 -0.00844386
1766 1 0.0747472 0.125411 0.0500676 0.0570952 -3.35355 0.0430171 -0.127087 0.0190186
1849 1 0.0999104 0.150185 0.0497599 0.0195061 -3.35479 0.0133511 -0.0695008 0.0305076
176 1 0.150135 0.12497 0.024787 0.00869185 -3.35649 0.0601657 0.00950938 0.0351714
251 1 0.125052 0.149888 0.0245682 0.0309068 -3.35157 0.00161508 -0.0121587 0.129013
1770 1 0.12554 0.125167 0.0500398 0.0458008 -3.35246 -0.087275 0.026555 -0.0591587
1853 1 0.15034 0.150132 0.0497461 0.025065 -3.35237 -0.0492303 -0.0278796 0.0255178
253 1 0.15049 0.150065 -0.000238872 0.0437236 -3.34446 -0.0672905 -0.0509472 0.0491912
180 1 0.200083 0.125046 0.0251138 0.00706518 -3.34272 0.0489367 0.0462428 -0.0681984
255 1 0.175335 0.150118 0.0249999 0.0152395 -3.35015 -0.0560607 -0.0420734 0.00610988
1774 1 0.175153 0.124749 0.0498702 0.0153499 -3.33555 -0.111455 0.0941564 -0.0276525
1857 1 0.20009 0.150108 0.0500648 0.00646571 -3.34335 -0.0141582 -0.0269567 -0.0255554
174 1 0.175178 0.124574 -6.97217e-06 0.0334143 -3.34591 -0.0161371 0.0987533 0.00506867
257 1 0.200093 0.150121 0.000146968 0.0110741 -3.34856 0.0285712 -0.0638133 -0.0443525
184 1 0.250009 0.125057 0.0250859 0.0124568 -3.34799 -0.0117043 -0.0511811 -0.0227268
259 1 0.225257 0.150226 0.0251497 0.0169875 -3.35199 -0.0314196 -0.029844 -0.00855419
1778 1 0.225126 0.125145 0.0500419 0.00845268 -3.34755 0.00707876 -0.0676562 0.00179612
1861 1 0.250192 0.149876 0.0503347 0.0258889 -3.34544 0.0510709 0.0323063 -0.082824
263 1 0.275097 0.149661 0.0249742 0.0122209 -3.35287 -0.020879 0.0369015 -0.0486115
1782 1 0.274948 0.124499 0.0499228 0.0414418 -3.34331 -0.0289371 0.0696097 0.0744787
178 1 0.22515 0.125007 0.000122887 0.0102583 -3.34969 -0.0642103 -0.0408875 -0.0111358
182 1 0.2751 0.124808 -9.09407e-05 0.00715256 -3.35361 -0.018711 0.0427509 0.00326194
188 1 0.30025 0.124685 0.0251594 0.0204267 -3.3382 -0.0365509 0.0508838 -0.0720511
1865 1 0.299889 0.149503 0.0498619 0.0321695 -3.35175 0.0646342 0.112759 -0.00312254
267 1 0.325178 0.149941 0.0248984 0.0128598 -3.34218 -0.0369981 -0.0360042 0.0322308
1786 1 0.325262 0.124805 0.0497409 0.0251009 -3.34798 -0.0181652 0.0421777 0.0928182
186 1 0.325121 0.124803 4.99246e-05 0.0108978 -3.34465 0.0449519 0.00574658 0.0316331
265 1 0.300202 0.14963 -0.000224475 0.0130521 -3.35222 -0.00770465 0.0418735 0.0304601
192 1 0.350161 0.124884 0.0251804 0.0153964 -3.33992 -0.0768638 0.0475691 -0.0692455
1869 1 0.350143 0.150269 0.0500976 0.0359002 -3.34186 -0.0347467 -0.091775 0.00663191
271 1 0.374857 0.150218 0.0249567 0.0170698 -3.35027 -0.0101551 -0.0119001 0.0208545
1790 1 0.374792 0.125069 0.0500169 0.0223923 -3.33591 0.0696627 -0.0273698 -0.00992626
190 1 0.374942 0.125209 0.000393433 0.0345763 -3.34874 -0.000233006 -0.00992198 -0.11355
269 1 0.34955 0.150077 -0.00013081 0.0415091 -3.34968 0.0997788 -0.0134124 0.0360767
196 1 0.400104 0.125529 0.0249982 0.042121 -3.34072 -0.0262414 -0.134933 -0.016748
1873 1 0.400009 0.14966 0.0500462 0.0315294 -3.34167 -0.0128904 0.128403 -0.0235121
275 1 0.424859 0.150137 0.0250422 0.0209724 -3.34361 0.0983238 -0.0353514 -0.029256
1794 1 0.425068 0.125034 0.0499797 0.0105775 -3.34287 0.0831647 -0.0186202 -0.0678433
273 1 0.400101 0.149984 7.0256e-05 0.0150858 -3.33843 -0.00660882 0.00906978 -0.0534862
200 1 0.450341 0.124949 0.0248031 0.0231926 -3.34958 -0.143499 0.0207585 0.0780905
1877 1 0.450313 0.149942 0.0497182 0.0271142 -3.34381 -0.075995 0.0190994 0.0160582
279 1 0.475111 0.150184 0.0246756 0.0153346 -3.34565 -0.0113904 -0.000224491 0.0130089
1798 1 0.47485 0.125115 0.0501536 0.0135311 -3.34819 0.0423523 -0.0564679 -0.0495732
204 1 0.499929 0.125041 0.0249485 0.012 -3.34252 -0.0170377 0.056258 0.0573357
283 1 0.524987 0.150278 0.0252292 0.0242954 -3.34415 0.0118348 -0.0287498 -0.0589448
1802 1 0.524818 0.12548 0.0501713 0.0298856 -3.34755 0.00853145 -0.128009 -0.0923619
1881 1 0.499799 0.150188 0.0497723 0.00865972 -3.33668 -0.0713062 -0.0294095 0.00409857
208 1 0.550123 0.124942 0.0250335 0.0325037 -3.36421 -0.0402111 0.0515859 -0.0209446
1885 1 0.549957 0.150253 0.0497492 0.0164568 -3.33942 -0.0159166 0.0863802 0.035778
202 1 0.524468 0.125365 0.000152327 0.0459171 -3.34068 0.0848194 -0.102908 -0.0297464
281 1 0.500434 0.150154 -6.98392e-06 0.04512 -3.3461 -0.166554 0.0196566 -0.023009
285 1 0.549748 0.150119 0.00010968 0.0125751 -3.35446 0.0407889 0.0178109 -0.00543498
287 1 0.575075 0.150264 0.0252394 0.0202242 -3.3475 -0.0639621 -0.0160089 -0.0939399
1806 1 0.57474 0.125349 0.0502405 0.0356899 -3.3359 0.0763047 -0.114178 -0.099377
212 1 0.599792 0.125089 0.0251684 0.00942113 -3.35352 0.00200534 -0.00239303 -0.0402815
1889 1 0.599835 0.150251 0.0500935 0.0100002 -3.3428 0.0619266 -0.0228377 -0.0440798
289 1 0.599848 0.150156 -4.56513e-06 0.0118204 -3.34566 0.0610903 -0.0541321 0.0127055
291 1 0.624989 0.150184 0.0250111 0.0103443 -3.34806 -0.00443725 -0.0503192 0.0341331
1810 1 0.624735 0.124892 0.0498834 0.0195708 -3.36011 0.0746631 0.00841479 0.0597825
216 1 0.649821 0.124763 0.0252549 0.0209554 -3.34992 0.0427823 0.024618 -0.0244736
1893 1 0.650072 0.149888 0.0501688 0.0210996 -3.34895 -0.0609061 0.0207211 -0.0563803
293 1 0.649961 0.149684 0.000264211 0.0234475 -3.3446 0.0125254 0.0686055 -0.0399722
210 1 0.624853 0.125022 0.000151413 0.00896826 -3.34633 -0.0255266 -0.0101729 -0.00913208
214 1 0.674815 0.124716 -3.13755e-06 0.0186716 -3.341 0.00264598 0.0489596 0.0266335
295 1 0.674828 0.149946 0.0250086 0.00651095 -3.34715 0.0154871 0.0296507 -0.00542819
1814 1 0.675059 0.125123 0.0500837 0.0224695 -3.34339 0.0231515 -0.0631073 -0.0626608
220 1 0.69988 0.125151 0.0248717 0.0253244 -3.35197 0.0204454 -0.0655229 0.0884694
1897 1 0.700006 0.149834 0.0497282 0.0198897 -3.34206 0.0343856 0.0510653 -0.0308012
299 1 0.725242 0.1501 0.0246072 0.0353021 -3.35068 -0.073211 -0.00524205 0.124018
1818 1 0.724957 0.124745 0.0499622 0.0117414 -3.34845 0.0310944 0.072981 -0.0685786
224 1 0.750218 0.124964 0.0245299 0.0514181 -3.34784 0.00657249 -0.0100804 0.158546
303 1 0.774598 0.150095 0.0248983 0.0513812 -3.34821 0.123577 -0.0309709 -0.042768
1822 1 0.774956 0.124752 0.0501797 0.0309899 -3.34595 -0.053707 0.058249 -0.103591
1901 1 0.750101 0.149837 0.0499199 0.0138239 -3.35118 -0.0212607 0.00227306 0.0179542
218 1 0.725044 0.124927 0.000235099 0.0201382 -3.33656 0.000978576 0.00996626 -0.0917191
301 1 0.750062 0.150046 -6.70546e-05 0.00985159 -3.33461 0.0554327 0.0205073 -0.0274181
228 1 0.800012 0.124906 0.0247598 0.0236486 -3.35526 -0.0179911 0.0489127 0.0692008
307 1 0.825201 0.150096 0.0250679 0.0292951 -3.34762 -0.0341663 -0.121644 -0.00520879
1826 1 0.825181 0.124897 0.0495815 0.0241982 -3.3533 -0.0424881 0.0733792 -0.000438058
1905 1 0.799467 0.149915 0.0496596 0.06155 -3.34986 0.136585 0.00388653 0.0108094
305 1 0.800554 0.150029 0.000231934 0.0647163 -3.3506 -0.10615 -0.0317819 -0.0719523
232 1 0.850193 0.12484 0.0245026 0.0324351 -3.35142 -0.024649 0.0087551 0.0942533
311 1 0.874942 0.149785 0.0250507 0.0166685 -3.34906 0.0586482 0.0216266 -0.0858081
1830 1 0.874922 0.125013 0.0502382 0.0303523 -3.35001 0.0490424 -0.0801289 -0.0871318
1909 1 0.850287 0.150102 0.0499991 0.043998 -3.3335 -0.10075 -0.119416 -0.000793133
230 1 0.875212 0.125074 -0.000191291 0.022627 -3.33633 -0.00248998 -0.0728298 0.056817
236 1 0.90022 0.124632 0.0248677 0.0253196 -3.35116 -0.0443553 0.0673467 0.0152152
315 1 0.924601 0.150186 0.0252151 0.0609927 -3.33915 0.0511208 -0.126272 -0.0945464
1834 1 0.924905 0.124757 0.0502945 0.0159029 -3.33668 -0.0489048 0.0159488 -0.0515635
1913 1 0.899852 0.149609 0.0498528 0.0215228 -3.34428 0.00657858 0.0812536 0.0652288
164 1 1.00007 0.124939 0.0252225 0.0108988 -3.34392 -0.00858754 0.00247568 -0.0904021
1841 1 0.999653 0.149764 0.0500357 0.0229968 -3.3481 0.049123 0.0943591 0.0502604
240 1 0.949725 0.124901 0.0251003 0.0208709 -3.3544 0.0332292 0.00471127 -0.00400267
319 1 0.975174 0.14988 0.0249061 0.0283065 -3.34761 -0.0449045 -0.00445999 0.0621734
1838 1 0.975218 0.124702 0.0502473 0.0358765 -3.34758 -0.137855 0.0661088 -0.0303398
1917 1 0.94969 0.149637 0.049832 0.0338644 -3.34991 0.0914999 -0.00184446 0.0879979
241 1 0.999818 0.149674 0.000100277 0.0268387 -3.3488 0.023187 0.103399 0.0229116
317 1 0.950089 0.150007 0.000414398 0.0292317 -3.34827 -0.0589566 -0.0366384 -0.0967927
248 1 0.0500806 0.175016 0.024917 0.00972229 -3.35083 0.0024234 0.0363568 -0.043067
323 1 0.0248626 0.199953 0.0251701 0.0108872 -3.34579 0.0819069 -0.000152823 -0.0423389
1842 1 0.0249482 0.174957 0.0499745 0.00844464 -3.35112 -0.0270094 -0.037862 0.0410898
1925 1 0.0501187 0.199771 0.0502149 0.00940984 -3.34409 -0.0713692 0.0727764 -0.0155974
242 1 0.0246905 0.174935 5.96502e-05 0.0151776 -3.35975 0.0430845 0.0147895 -0.0261523
1921 1 7.06194e-05 0.200148 0.0499992 0.023498 -3.34948 -0.112878 -0.121256 -0.000161654
325 1 0.0499385 0.199954 -8.01245e-05 0.0143313 -3.35258 0.0618641 -0.0815525 0.0495233
252 1 0.100137 0.175166 0.0249582 0.0160125 -3.35125 -0.0493435 -0.0406744 0.0091652
327 1 0.0751024 0.199966 0.025195 0.0147724 -3.35466 -0.0168025 -0.0266796 -0.100067
1846 1 0.0748769 0.175079 0.04998 0.0083792 -3.33992 0.070488 -0.0346673 0.00525444
1929 1 0.1 0.199926 0.0502559 0.0158274 -3.34142 -0.00216148 -0.0213771 -0.0959333
256 1 0.149969 0.17518 0.0248997 0.0200441 -3.34653 0.0482898 -0.0822212 0.0439785
331 1 0.125137 0.199934 0.0250927 0.011228 -3.34457 -0.0956695 0.0340462 -0.0278037
1850 1 0.125036 0.174725 0.0499344 0.0261058 -3.339 -0.0114947 0.0403339 -0.0169841
1933 1 0.15 0.199869 0.0498535 0.0129235 -3.34149 0.06085 0.0363416 0.0640544
250 1 0.124984 0.17478 0.000254969 0.04241 -3.34357 0.0157706 0.0525818 -0.0967921
260 1 0.200008 0.175354 0.0250687 0.0277302 -3.34414 0.00972983 -0.0870157 0.00734133
335 1 0.17485 0.200193 0.0250374 0.0164629 -3.33865 0.0262567 -0.0724079 -0.0219129
1854 1 0.175127 0.174855 0.0502008 0.0223261 -3.34504 -0.0767804 0.0214834 -0.0376086
1937 1 0.199609 0.199795 0.0500191 0.0428794 -3.34549 0.110464 0.0873062 0.00902377
337 1 0.199953 0.199867 3.02681e-05 0.0149114 -3.34757 0.0101236 0.00539102 -0.0104719
264 1 0.250563 0.17493 0.0250082 0.0354581 -3.35087 -0.0919173 -0.0192238 -0.0119059
339 1 0.224972 0.199875 0.024984 0.011559 -3.34723 0.0389684 -0.0267636 0.0377874
1858 1 0.225169 0.174888 0.0501702 0.0166027 -3.34546 -0.000732425 0.0508996 -0.0854374
1941 1 0.24999 0.200024 0.0499294 0.0120655 -3.34605 0.0160482 -0.0657988 0.0399751
343 1 0.275206 0.199993 0.0247274 0.0174473 -3.34365 0.0477431 -0.0472 0.0696348
1862 1 0.275041 0.175056 0.0499568 0.0188195 -3.353 0.0514479 -0.0465607 -0.0145967
341 1 0.250465 0.199804 -1.93634e-05 0.0197842 -3.34406 -0.0476554 -0.00820976 0.00309473
262 1 0.275201 0.174713 -0.000204756 0.0085211 -3.3452 -0.0607927 -0.0347958 0.00367319