ITEM: TIMESTEP
14500
ITEM: NUMBER OF ATOMS
32000
ITEM: BOX BOUNDS pp pp pp
5.8693210405365326e+00 7.5130678959458308e+01
-2.7817206266977479e+00 8.3781720626691637e+01
-4.3443058539577208e+00 8.5344305853953514e+01
ITEM: ATOMS id type xs ys zs c_csym c_peratom fx fy fz
8 1 0.0448464 0.0210549 0.0236334 5.51888 -3.13216 0.0510234 0.280889 -0.0446967
4 1 0.00570715 0.0258094 0.0305539 0.507049 -3.28144 -0.0299426 -0.0598613 0.0923634
2 1 0.0237762 0.0211063 0.999922 4.35168 -3.18191 0.10617 -0.124972 0.392183
12 1 0.0901361 0.0207085 0.0168638 2.69204 -3.37755 0.0149164 -0.131847 0.293816
1610 1 0.118056 0.0196186 0.0406651 1.07346 -3.35161 -0.152387 0.182062 0.0723379
91 1 0.124089 0.0439329 0.0188064 0.344702 -3.31088 -0.262177 -0.0492366 0.159855
1606 1 0.0677934 0.0198593 0.04518 6.5412 -3.06775 0.268785 0.457142 -0.0461972
1689 1 0.0912363 0.0468136 0.0394098 1.20889 -3.32902 -0.0397767 -0.396601 0.15521
16 1 0.150571 0.0198906 0.0220065 0.359535 -3.32146 -0.0362453 -0.0694139 -0.0916365
1614 1 0.178145 0.0213981 0.0453042 0.353314 -3.3174 -0.139797 -0.392686 0.0300388
95 1 0.179686 0.0435887 0.0240227 0.523492 -3.31338 0.0986635 0.427068 -0.163919
1693 1 0.148574 0.0451856 0.0430027 0.16306 -3.32279 0.0494671 -0.104993 0.191059
20 1 0.209304 0.0207516 0.0246816 0.150348 -3.30731 0.0192567 0.0716446 0.158996
1618 1 0.235039 0.020154 0.0481895 0.17551 -3.32277 -0.0911075 0.144562 -0.116736
99 1 0.239081 0.045994 0.0274511 0.288725 -3.32377 -0.21158 -0.130214 -0.10144
97 1 0.211076 0.0459137 0.00476776 0.586895 -3.35413 0.0139693 -0.256262 -0.235312
17 1 0.209018 0.99657 0.00218913 0.449883 -3.34006 0.265538 0.00385027 -0.146198
1697 1 0.207686 0.0447628 0.0466889 0.362301 -3.33237 -0.193325 0.135043 -0.0495387
18 1 0.239752 0.0210803 0.00434026 0.276516 -3.32863 -0.0737295 0.215957 0.116066
24 1 0.266464 0.0207951 0.0278619 0.341516 -3.35436 -0.118135 0.194954 0.0577492
103 1 0.29352 0.0470091 0.0302989 6.95469 -3.29757 -0.138371 0.0188255 0.0438868
21 1 0.270178 0.998237 0.00467015 1.21962 -3.33075 -0.230364 -0.0545249 -0.0204658
101 1 0.269028 0.0478471 0.00665005 6.47052 -3.31887 -0.0559187 -0.207559 0.0608766
22 1 0.296433 0.0245276 0.00689746 6.15675 -3.29506 -0.055021 -0.191254 0.141563
28 1 0.319443 0.0236605 0.0312939 5.97595 -3.30037 -0.0089133 -0.157142 0.0743475
32 1 0.358485 0.0316372 0.0286892 5.22693 -3.22768 -0.178825 0.00108149 -0.331789
26 1 0.336711 0.0315189 0.00335708 1.72495 -3.27763 -0.114686 -0.140957 0.0629872
25 1 0.32127 -2.73733e-05 0.00762339 8.3815 -3.29718 -0.179605 -0.161904 -0.161963
31 1 0.3812 0.00697942 0.02229 1.55167 -3.30321 0.376105 -0.105846 0.141783
30 1 0.375541 0.0340003 0.999326 5.74672 -3.35383 0.194191 0.162436 -0.103581
36 1 0.399859 0.0371555 0.0230047 7.28999 -3.32781 0.0511647 -0.353544 -0.108717
35 1 0.420451 0.00729492 0.0143737 6.93649 -3.28816 -0.0776887 0.142512 0.0439576
40 1 0.443206 0.0328269 0.017887 6.65774 -3.30453 0.158481 -0.0447285 -0.269994
39 1 0.472919 0.00898639 0.0154584 0.969393 -3.25918 0.397871 0.313342 0.173247
1637 1 0.446374 0.00741109 0.0380943 7.52141 -3.24785 -0.255929 0.398319 0.184921
1638 1 0.470298 0.0313579 0.0411993 5.86916 -3.30183 -0.00260058 -0.0711516 0.0274496
44 1 0.501886 0.031211 0.0194739 0.36347 -3.29599 -0.146923 -0.027295 0.217223
43 1 0.528818 0.00739184 0.0212578 6.25193 -3.28196 -0.036776 -0.0486832 -0.0683273
42 1 0.528631 0.0326175 0.997561 6.34634 -3.26971 0.0569753 -0.200174 0.104972
48 1 0.554 0.0294574 0.0250086 8.38407 -3.26284 0.421627 0.344719 -0.0612942
41 1 0.503282 0.00855438 0.994416 5.6654 -3.32134 0.0601663 0.0613159 0.240201
52 1 0.5927 0.0291899 0.0157563 6.91036 -3.29506 -0.103033 -0.13517 0.0541702
1650 1 0.615692 0.0234174 0.0414434 7.85907 -3.14503 0.49123 -0.0677522 -0.17924
56 1 0.63418 0.0241195 0.0148993 6.40211 -3.32892 0.247607 0.0907098 -0.217844
135 1 0.661566 0.0487024 0.0179151 5.09804 -3.35328 -0.0215592 0.012253 -0.0618489
1654 1 0.660191 0.0246885 0.0404671 5.68062 -3.33793 -0.039957 0.0353335 0.266253
60 1 0.69351 0.0261326 0.0209722 0.274989 -3.29617 -0.215374 -0.024707 0.196727
1657 1 0.690666 0.00243435 0.0445568 0.457646 -3.33498 -0.0368597 0.0452848 0.126203
59 1 0.722616 0.00337142 0.0251703 0.260589 -3.31138 -0.0489406 -0.0580754 -0.0993034
58 1 0.722287 0.0274415 0.000283492 0.424818 -3.28536 0.0875449 0.0325694 -0.0391108
139 1 0.719514 0.0492898 0.0247223 0.352557 -3.31824 0.101787 0.255772 -0.26308
64 1 0.747978 0.0273994 0.0278326 0.462833 -3.30855 0.169023 -0.01927 -0.194241
61 1 0.751339 0.00458697 0.00325985 7.176 -3.29474 0.199507 0.0298909 -0.0132855
68 1 0.804228 0.0282046 0.030438 8.27141 -3.25298 0.00859656 0.181321 0.0298853
62 1 0.778472 0.0268234 0.00592323 8.10685 -3.22707 -0.00658088 0.312213 0.133755
143 1 0.775989 0.0506862 0.0272697 5.80488 -3.29634 0.000106169 -0.181271 0.414948
141 1 0.750693 0.0499961 0.00240463 6.00989 -3.30361 -0.187945 0.127854 0.262983
63 1 0.777614 0.00476668 0.0287879 6.65197 -3.29596 0.153358 0.119445 0.0677427
65 1 0.794097 0.000223022 -0.00106816 7.73329 -3.2676 0.244495 0.0195721 0.051016
72 1 0.846 0.0313905 0.0248108 5.61457 -3.32214 0.157854 -0.228066 0.168168
71 1 0.879668 0.0073012 0.0274713 0.711148 -3.31181 -0.129269 0.0168294 0.134285
76 1 0.906009 0.0317315 0.0295783 0.281446 -3.32264 0.0216895 -0.283741 0.0557329
74 1 0.940626 0.0315794 0.00834321 5.85471 -3.33602 -0.0660197 -0.442639 0.445699
75 1 0.938143 0.00787403 0.0327001 6.926 -3.36845 -0.194806 0.220247 -0.066805
70 1 0.880281 0.0296688 0.00446062 0.371492 -3.31373 0.242297 0.240708 0.262621
73 1 0.914488 0.00750233 0.00723921 6.88604 -3.34184 -0.0383884 0.126395 0.0988124
80 1 0.964376 0.0324986 0.0339506 6.74911 -3.34702 -0.0338592 -0.272091 0.104596
78 1 0.983771 0.0248486 0.00582362 0.774754 -3.29188 0.109989 0.120387 0.311537
77 1 0.958248 0.00120471 0.00339518 0.31839 -3.26804 -0.0467423 0.11767 0.307002
79 1 0.978879 0.00137154 0.0291474 0.412518 -3.31144 0.24417 0.234763 -0.188425
83 1 0.032844 0.050069 0.0358035 6.22757 -3.29449 0.296745 0.159772 -0.34811
88 1 0.0642556 0.0725091 0.0368242 7.05006 -3.26986 0.35954 -0.287954 0.347171
84 1 0.0169417 0.0804819 0.0386069 6.09056 -3.30157 0.0969274 -0.407665 0.0877972
82 1 0.0413529 0.0743353 0.0135932 0.741701 -3.2908 -0.384604 -0.127032 -0.236003
81 1 0.00914826 0.0496706 0.0116126 6.94807 -3.27634 0.31062 0.253319 -0.4431
87 1 0.0639577 0.0472741 0.0149405 3.56851 -3.29302 0.332296 -0.0857792 0.139788
92 1 0.09608 0.0686972 0.0178892 2.20358 -3.26231 -0.221235 0.127872 -0.641822
171 1 0.123101 0.0928394 0.0189953 7.30686 -3.31519 0.0597718 -0.151156 0.0551515
1690 1 0.120614 0.0682606 0.0404399 5.31403 -3.25183 0.173878 0.246239 0.284829
96 1 0.153125 0.0688731 0.0212363 0.294855 -3.33762 -0.1457 -0.0764594 0.0679208
1694 1 0.178135 0.0691911 0.0457442 0.432557 -3.34933 -0.21422 0.049139 0.0582505
175 1 0.180792 0.0938118 0.024302 0.387043 -3.32812 0.13433 -0.261706 0.0454475
1773 1 0.146627 0.0929959 0.0447046 8.17351 -3.30362 0.420346 -0.1818 -0.108792
94 1 0.183148 0.0686685 0.00108595 0.31094 -3.32696 0.162731 -0.114073 0.123169
100 1 0.208859 0.0691666 0.0257262 0.269107 -3.34409 0.0248491 0.166226 0.201672
1777 1 0.204353 0.0934495 0.0497982 0.609785 -3.33129 0.095985 -0.0106146 -0.195768
98 1 0.241327 0.0702756 0.00675287 7.28774 -3.32409 -0.0565988 0.16818 0.0191513
104 1 0.266719 0.0709565 0.0304017 7.16848 -3.33364 -0.23435 0.071198 -0.211658
108 1 0.305134 0.0807767 0.0254334 0.323272 -3.2965 0.0949853 -0.175006 -0.0354157
102 1 0.281083 0.0795199 0.00128066 0.0967033 -3.29543 0.0169316 0.0208479 0.0620308
105 1 0.307922 0.0563555 0.0029602 0.288383 -3.27756 0.240827 0.0273336 0.0550408
107 1 0.332364 0.0564979 0.0269305 0.535523 -3.28855 -0.111454 -0.0852353 -0.245783
111 1 0.372569 0.0605353 0.0218721 5.83319 -3.269 -0.208568 0.282899 -0.0489972
112 1 0.34471 0.0869616 0.0211516 7.70354 -3.34127 0.0757282 -0.0242199 -0.0236497
1710 1 0.369304 0.0852748 0.0445121 6.5546 -3.32176 -0.0189514 0.365628 0.293603
109 1 0.347694 0.0617782 0.998471 7.50826 -3.29497 0.114287 0.00235248 0.0363712
115 1 0.427519 0.0614792 0.0256568 6.94745 -3.28858 0.297643 -0.0703636 -0.0286265
1713 1 0.396346 0.0611871 0.0456193 6.41529 -3.2649 -0.13838 -0.0702841 0.183322
113 1 0.403112 0.0593915 0.000891675 5.7235 -3.30589 0.348513 0.151237 0.0407092
116 1 0.400003 0.0845129 0.025501 0.282458 -3.26728 0.127361 0.313812 -0.159208
110 1 0.37777 0.0840318 0.000999225 0.481086 -3.25195 -0.373706 0.10721 0.106902
114 1 0.433247 0.0842952 0.00453563 7.19849 -3.31578 -0.252723 -0.0194798 -0.174544
119 1 0.473512 0.0548751 0.01947 6.29741 -3.29819 -0.242277 -0.154724 -0.234919
120 1 0.458193 0.0839383 0.0282514 7.07079 -3.3131 0.237995 0.0647724 0.132121
118 1 0.473063 0.0786357 0.99744 9.22336 -3.35792 0.138904 0.012729 -0.114568
123 1 0.529385 0.0535142 0.0235685 6.52095 -3.29097 0.161671 0.0893439 0.0577906
121 1 0.502408 0.0558601 0.996343 5.86679 -3.27247 0.0253339 0.126526 0.123144
124 1 0.501498 0.0772818 0.0224561 9.09711 -3.35966 0.0253061 0.20347 0.0307122
128 1 0.542619 0.0829088 0.016435 7.05193 -3.26821 0.00257105 -0.313082 -0.147368
127 1 0.573605 0.0577075 0.0194939 7.02149 -3.32814 -0.12303 0.0697259 -0.0331662
131 1 0.615993 0.0538469 0.0181006 1.08822 -3.24167 -0.190569 -0.218323 -0.099857
132 1 0.600138 0.0826333 0.0230467 7.12236 -3.31653 -0.0561959 -0.042888 -0.147182
126 1 0.576399 0.0816419 0.997054 6.58904 -3.33927 -0.065983 0.26007 0.0484011
136 1 0.6418 0.0765257 0.0196222 0.935103 -3.23827 -0.0419788 -0.0546083 -0.106204
1733 1 0.63773 0.0509261 0.0431742 6.20377 -3.2619 -0.208188 -0.0692261 0.0889167
1734 1 0.664331 0.0745645 0.0444262 6.33754 -3.27149 -0.0954824 0.0154864 -0.133767
1737 1 0.688217 0.0489379 0.0438908 0.97142 -3.33819 -0.00758654 -0.0810824 -0.113598
140 1 0.690126 0.073597 0.0203627 1.36616 -3.30875 -0.0294883 -0.217495 0.0576554
144 1 0.747403 0.073209 0.0265169 6.46743 -3.33776 0.0685408 -0.038875 -0.069813
219 1 0.718994 0.0968488 0.0236192 6.83603 -3.31864 -0.0202209 0.0258837 -0.199027
1738 1 0.717418 0.0723409 0.046655 0.459358 -3.28065 0.0366174 0.0814592 -0.0849171
148 1 0.789047 0.079446 0.021262 7.18618 -3.29411 0.0141985 0.334826 0.0628941
147 1 0.818241 0.0570554 0.0228395 7.47935 -3.28095 -0.0599143 -0.189839 0.0807807
152 1 0.84623 0.0791311 0.0239345 0.280079 -3.32406 0.157218 0.0697799 0.161622
1746 1 0.812983 0.0815586 0.0460114 7.1065 -3.31024 0.0774025 -0.117911 -0.0878194
149 1 0.850282 0.0541722 0.00308107 0.310946 -3.32062 -0.0372503 -0.281619 -0.221557
151 1 0.874956 0.055032 0.0271149 0.150353 -3.33279 -0.00342543 -0.20926 0.108221
155 1 0.934534 0.054267 0.0324719 0.523687 -3.29203 -0.30778 -0.0599773 -0.228485
156 1 0.904198 0.0766988 0.0285365 0.510964 -3.34978 0.11425 0.383375 0.208
150 1 0.878845 0.0767908 0.00464198 0.203042 -3.31904 -0.0745744 0.0136018 0.103383
153 1 0.908694 0.0526869 0.00740679 0.455826 -3.3061 -0.266455 0.183213 -0.0797984
154 1 0.934882 0.0775278 0.00872328 0.178548 -3.33074 0.0115615 0.0254909 -0.0479495
159 1 0.990307 0.0566868 0.0374934 7.6646 -3.30013 0.129008 -0.0677116 -0.0365654
160 1 0.96038 0.0779066 0.0322853 0.744187 -3.30584 0.210555 0.387692 0.429926
157 1 0.965592 0.0553334 0.0117346 5.90428 -3.2776 0.0577874 -0.0196056 0.0190626
158 1 0.992668 0.0785788 0.0125645 2.96872 -3.31802 -0.26928 -0.028183 0.0248068
161 1 0.0192516 0.101129 0.0146676 1.04174 -3.26931 0.206268 -0.187842 -0.0729964
165 1 0.0480464 0.0963532 0.991248 0.336843 -3.37628 0.227768 0.0815791 0.223162
163 1 0.0468464 0.100309 0.0399419 1.47573 -3.28091 -0.0294489 0.243315 0.142874
164 1 0.0190698 0.124654 0.0371447 0.329689 -3.34424 -0.101018 -0.143062 0.278564
162 1 0.0501083 0.120305 0.0166241 0.871359 -3.26703 -0.240532 0.577361 -0.194016
168 1 0.0758746 0.122539 0.0432236 0.268465 -3.31212 0.105862 0.120955 -0.242515
167 1 0.0772246 0.0984604 0.0181868 5.94652 -3.29438 0.109509 -0.436918 0.526001
172 1 0.106977 0.122752 0.0230062 6.64217 -3.30892 -0.15564 -0.271266 -0.0609034
170 1 0.130567 0.116284 0.997372 1.47574 -3.31398 -0.201021 -0.00713819 -0.227966
176 1 0.153186 0.11601 0.0217322 6.28551 -3.26004 0.174588 -0.00288208 0.0653129
174 1 0.187222 0.117679 0.000167333 6.68077 -3.26929 -0.0290378 -0.204521 0.327089
179 1 0.237795 0.0942662 0.0288949 7.32483 -3.36947 -0.220597 -0.0993069 -0.0812106
180 1 0.20958 0.117226 0.0251778 6.39097 -3.31604 0.367531 -0.00602391 0.483309
184 1 0.251615 0.125448 0.0215191 0.316725 -3.28173 -0.147133 0.224267 0.220145
177 1 0.213223 0.0932911 0.00381863 7.41624 -3.33095 0.128651 0.052536 0.222005
181 1 0.254129 0.102278 0.000242816 0.227937 -3.29264 -0.276202 -0.112474 -0.448975
178 1 0.227099 0.124623 0.997134 0.456688 -3.30419 0.136254 0.0517651 -0.275351
183 1 0.277531 0.103215 0.0238466 0.191814 -3.271 0.298136 -0.173525 0.162205
188 1 0.290918 0.136705 0.0182148 5.89723 -3.32333 0.123118 -0.251089 -0.00257587
1789 1 0.342138 0.110875 0.0445297 7.42483 -3.36221 -0.0316996 0.0202633 -0.00206491
187 1 0.316616 0.112451 0.0203695 7.06364 -3.3669 0.264405 -0.0815422 0.0231366
192 1 0.347515 0.135756 0.02209 0.203208 -3.3199 -0.0985901 -0.0026254 0.0409607
1786 1 0.316331 0.136123 0.0433542 6.21025 -3.35091 -0.0665402 -0.0707903 -0.275464
195 1 0.430284 0.107053 0.0287818 0.708951 -3.32273 -0.269115 0.378588 0.158253
191 1 0.373004 0.110256 0.0246965 0.341815 -3.30682 0.218406 -0.0613122 -0.165179
196 1 0.4031 0.133892 0.0276975 0.209146 -3.31761 -0.139267 0.00815172 -0.042179
193 1 0.40413 0.107221 0.00403794 0.688588 -3.30281 0.263998 0.435862 0.320909
190 1 0.379102 0.133815 0.00279184 0.177147 -3.32884 -0.0980516 0.223577 0.068698
194 1 0.432905 0.132217 0.00893416 5.86185 -3.2785 0.0657601 0.131652 -0.164929
199 1 0.485469 0.107004 0.0330535 4.33549 -3.33453 -0.0826273 -0.0651949 0.100118
200 1 0.459871 0.132502 0.0318452 2.11127 -3.30858 0.00753183 -0.0884462 0.013577
197 1 0.459463 0.108886 0.00853754 4.94895 -3.29666 0.238102 -0.21942 -0.00798718
204 1 0.48919 0.13036 0.0110554 5.33975 -3.28434 -0.253826 0.0313789 -0.0086429
203 1 0.515831 0.107192 0.01355 5.05601 -3.29598 -0.0279709 -0.196137 -0.270648
1805 1 0.539081 0.104335 0.0376159 5.05766 -3.27978 0.104567 0.206356 0.229631
208 1 0.543979 0.129304 0.0151582 0.446091 -3.30706 -0.0386953 0.0435108 0.309811
1802 1 0.512761 0.130208 0.0365385 4.27814 -3.29097 0.0390428 -0.263489 0.00292386
207 1 0.57109 0.105335 0.0186806 0.122609 -3.31004 0.132925 -0.0195181 0.0407837
212 1 0.598782 0.128355 0.0225567 0.093661 -3.27871 -0.147039 -0.215593 -0.0298243
209 1 0.602863 0.105905 0.998199 6.40189 -3.34221 0.0330921 -0.0636647 0.0666805
206 1 0.5764 0.129338 0.996238 0.241985 -3.28884 -0.0882309 -0.051642 -0.15265
211 1 0.627323 0.105201 0.0247789 6.9406 -3.308 -0.0433322 0.123812 0.149247
210 1 0.629596 0.128466 0.0020262 5.99356 -3.31368 0.0719685 0.177659 -0.18942
215 1 0.66822 0.100056 0.0216926 1.72811 -3.22167 -0.101503 -0.257838 -0.322159
216 1 0.653906 0.128366 0.0285007 7.06268 -3.30176 0.0448443 0.191294 -0.011282
214 1 0.668257 0.123684 0.995824 2.4843 -3.29314 0.264319 -0.250608 0.315317
220 1 0.694091 0.123142 0.0227328 6.66603 -3.32284 0.0194466 -0.125222 0.0625543
224 1 0.733665 0.126892 0.0163874 6.84875 -3.28733 0.0747048 0.095996 0.0642205
223 1 0.75902 0.103516 0.019137 8.23438 -3.29286 0.401327 -0.207302 0.0178603
228 1 0.789532 0.126126 0.0197146 0.216955 -3.33542 0.156383 0.0708187 0.128048
1822 1 0.758212 0.126691 0.0401939 6.49574 -3.29566 -0.0254979 0.182635 0.454121
1825 1 0.784175 0.103802 0.0437213 7.47769 -3.30883 0.0488552 -0.0437238 0.0408162
227 1 0.816764 0.10215 0.0224858 0.346224 -3.33346 0.310147 0.0759507 -0.0798653
232 1 0.846847 0.125135 0.0240876 0.153559 -3.36248 -0.101019 0.325603 0.134756
1826 1 0.81406 0.125471 0.0447946 0.435558 -3.36149 0.255223 0.263391 0.0510442
1829 1 0.845184 0.102873 0.0456351 0.797193 -3.32713 -0.301671 0.0241846 0.16976
229 1 0.849734 0.102434 0.0017897 0.482229 -3.31577 -0.0155158 -0.33139 0.121466
235 1 0.932517 0.101738 0.0310285 0.157476 -3.34444 0.00703169 0.0105791 -0.0809817
231 1 0.87644 0.101867 0.0251906 0.452453 -3.33672 -0.14931 -0.11387 0.322062
236 1 0.90401 0.125225 0.0289606 0.0862562 -3.36093 0.0715466 0.120624 -0.133896
234 1 0.93514 0.126452 0.00751736 0.53318 -3.36225 -0.0664858 -0.259796 0.284987
233 1 0.90741 0.101597 0.00663544 0.268866 -3.32579 0.145046 -0.0443169 0.0346096
230 1 0.878499 0.125505 0.00397077 0.19037 -3.33074 -0.0461022 0.0685515 -0.0263672
239 1 0.988246 0.101844 0.035615 0.18638 -3.33534 -0.0573527 0.0339453 -0.00082787
240 1 0.961713 0.125221 0.0323044 0.404788 -3.38068 -0.237398 0.0904224 0.0531274
238 1 0.992569 0.123484 0.0117809 0.199813 -3.30409 -0.476577 0.124955 -0.000937206
237 1 0.961935 0.101148 0.0100071 0.297091 -3.35736 0.196575 0.117296 -0.0709792
243 1 0.0479836 0.146659 0.0398031 0.168 -3.35034 -0.079731 -0.271998 -0.0047528
244 1 0.020196 0.169405 0.0368928 0.160586 -3.34061 0.0432169 0.150296 -0.0410398
241 1 0.0209358 0.144877 0.0128907 0.390726 -3.33107 0.289264 0.233613 0.151382
242 1 0.050114 0.16821 0.0153296 0.152527 -3.33591 -0.00555897 -0.0846475 0.0181094
247 1 0.103212 0.146996 0.0443819 0.525694 -3.31603 0.0498102 -0.245891 0.0725834
249 1 0.110645 0.143543 0.996889 1.64157 -3.30252 -0.352489 -0.0677132 0.342127
245 1 0.0770508 0.144732 0.0179978 0.384792 -3.31548 0.216182 -0.0474172 0.0970985
248 1 0.0748309 0.169593 0.0417246 0.218499 -3.31977 0.276406 -0.000394708 -0.0104881
246 1 0.10644 0.167564 0.0204571 0.166957 -3.33627 0.0855553 -0.0387506 -0.124748
255 1 0.183397 0.140605 0.0247041 8.38159 -3.2792 0.117873 0.0210437 -0.0122164
251 1 0.135591 0.143721 0.0237908 5.75585 -3.29163 0.188309 0.362159 0.00993468
253 1 0.162734 0.141504 0.999216 6.96393 -3.30464 -0.471145 0.163739 0.130412
252 1 0.132865 0.168162 0.0456646 0.455604 -3.29656 -0.0362283 0.0199683 0.208093
256 1 0.162888 0.16717 0.0243733 7.86691 -3.30935 -0.0375598 -0.107382 0.0113986
250 1 0.137441 0.167568 0.998173 7.53299 -3.31943 -0.0920415 -0.428477 0.303701
259 1 0.225817 0.148587 0.0189292 0.506698 -3.29904 -0.109468 -0.0157981 0.0176256
260 1 0.200591 0.172863 0.0167277 1.63391 -3.29267 -0.145903 -0.0536969 -0.155629
264 1 0.239532 0.183688 0.0120505 7.68487 -3.33397 0.0448151 -0.127859 -0.0128129
1858 1 0.224597 0.171516 0.0400463 4.8541 -3.28312 0.273508 0.21296 0.0389509
257 1 0.202803 0.148757 0.99438 0.638491 -3.31303 -0.207016 0.270817 -0.0562547
263 1 0.264453 0.15914 0.0161561 6.81515 -3.33262 -0.0217978 0.227981 -0.173817
1862 1 0.263254 0.183544 0.0376976 6.62856 -3.28661 0.135338 -0.316705 -0.120909
268 1 0.295157 0.185009 0.0181891 0.25828 -3.33824 -0.0671012 -0.231411 -0.0619943
1865 1 0.289017 0.159594 0.0408851 6.84611 -3.35257 0.120177 -0.0262443 0.0390123
267 1 0.320993 0.160815 0.019749 0.249745 -3.34584 -0.0548595 -0.0382835 0.266252
272 1 0.349814 0.184973 0.0229282 0.537979 -3.32518 0.212823 -0.233256 0.239946
266 1 0.324804 0.184243 0.996816 0.28626 -3.31781 0.0300871 -0.112315 0.211498
1869 1 0.345778 0.159757 0.045443 0.201957 -3.3582 -0.0746029 -0.00819246 -0.0386205
1866 1 0.319805 0.184183 0.0436542 0.216059 -3.33323 0.0517288 -0.177353 -0.0299895
269 1 0.352177 0.159858 0.000965655 0.167108 -3.35858 0.145927 -0.0917341 -0.207597
271 1 0.377079 0.160024 0.0258567 0.244805 -3.34416 -0.0689951 -0.186493 -0.0992582
273 1 0.409138 0.159793 0.00681961 1.12248 -3.30727 -0.152926 -0.340832 -0.110404
276 1 0.406873 0.182775 0.0302311 0.603827 -3.33863 0.0313716 -0.00148447 0.187856
275 1 0.434836 0.157794 0.0299837 2.8703 -3.2977 -0.101139 -0.10285 0.234554
270 1 0.381513 0.183641 0.00422895 0.808572 -3.34759 0.0675957 0.0506709 0.067421
280 1 0.441322 0.184074 0.0155715 0.669204 -3.28716 0.0683672 0.235767 -0.141818
279 1 0.472852 0.161233 0.0192142 9.5646 -3.32103 -0.09459 -0.136242 -0.102129
278 1 0.475664 0.184618 0.998039 7.24717 -3.32435 -0.0857282 0.0191911 -0.337642
284 1 0.501282 0.183793 0.0228739 7.4377 -3.32355 0.00755423 -0.0235555 -0.0125177
283 1 0.515575 0.152971 0.0155103 6.04898 -3.31757 0.0110078 0.282234 -0.178721
288 1 0.544483 0.176246 0.0181277 6.44491 -3.31748 -0.398462 -0.150422 0.111385
285 1 0.547691 0.152404 0.994084 0.273316 -3.32299 -0.173441 0.0605917 -0.207936
287 1 0.571771 0.151856 0.0197391 0.203536 -3.3337 -0.105109 0.0368818 0.146843
291 1 0.624988 0.1511 0.0265766 0.131329 -3.29413 -0.038687 0.172385 0.0980206
292 1 0.598205 0.175378 0.02452 0.251745 -3.33073 -0.0218028 -0.13523 -0.178381
290 1 0.629161 0.176001 0.00368064 0.329863 -3.29694 -0.0897557 -0.123157 0.0571224
289 1 0.603169 0.151969 0.999802 0.237025 -3.3184 0.0331454 0.186059 -0.0534322
286 1 0.574462 0.174669 0.997444 0.312811 -3.30714 0.0994617 0.237509 -0.176303
295 1 0.679328 0.151825 0.0329131 4.67876 -3.31129 -0.140552 0.0859424 0.154391
296 1 0.650491 0.174708 0.030654 0.547274 -3.3126 0.205389 0.201869 -0.118894
293 1 0.655004 0.151954 0.00665794 4.80955 -3.29903 -0.0817326 0.200163 -0.125377
294 1 0.682867 0.174571 0.0112984 5.22447 -3.31653 -0.172596 0.196062 -0.101624
1901 1 0.734127 0.151519 0.0382906 4.20923 -3.28718 0.0164722 0.000791662 0.173562
300 1 0.706445 0.175157 0.0367305 4.90211 -3.28967 -0.0991747 0.089291 -0.0216902
299 1 0.709982 0.151257 0.0143103 4.13158 -3.21313 0.108244 0.140575 0.0434214
304 1 0.737083 0.175135 0.0183836 4.95041 -3.2423 0.221943 0.182501 -0.32649
303 1 0.764354 0.151006 0.0168927 0.789517 -3.34871 -0.0163622 -0.0815457 0.137026
1905 1 0.786413 0.14959 0.0432548 0.384857 -3.33023 0.170594 0.135739 -0.140227
308 1 0.791086 0.175413 0.0200132 0.515018 -3.32437 -0.208969 -0.300994 -0.0077243
1902 1 0.761042 0.175089 0.0417902 4.43123 -3.28525 -0.0219624 0.00248499 -0.103232
1906 1 0.81468 0.174251 0.0439616 0.442168 -3.33622 0.165611 0.0465328 0.388845
307 1 0.817882 0.149984 0.0232902 0.383508 -3.34366 0.063244 -0.141304 -0.165059
312 1 0.847387 0.173651 0.0248834 0.14843 -3.33675 0.0373084 -0.0649023 -0.0395263
1909 1 0.843378 0.150437 0.0469142 0.210662 -3.3534 -0.0243278 -0.239497 -0.00523394
309 1 0.84846 0.149322 0.00201372 0.47435 -3.349 0.223747 -0.0986138 0.0739606
311 1 0.875224 0.148915 0.026377 0.129509 -3.36204 -0.0634983 0.0893006 -0.0236031
1910 1 0.874177 0.172508 0.0484732 0.310849 -3.34345 -0.310472 0.24051 0.211723
315 1 0.932372 0.149243 0.0318414 0.353978 -3.34478 0.0804769 -0.263911 -0.49818
310 1 0.878118 0.172742 0.00383223 0.154435 -3.34503 0.160056 -0.141868 -0.039264
316 1 0.90534 0.172793 0.0292089 0.133458 -3.34425 0.0509626 -0.1199 -0.214882
314 1 0.937042 0.172022 0.00899733 0.203626 -3.35331 -0.15613 -0.0495971 -0.211116
313 1 0.905792 0.14936 0.00649293 0.276697 -3.36722 0.310565 -0.0686593 -0.0823766
317 1 0.964541 0.148572 0.00983287 0.147081 -3.36527 0.105551 -0.234853 0.0579927
319 1 0.991654 0.148069 0.0349809 0.415134 -3.35532 -0.274641 -0.173892 0.0186098
320 1 0.9634 0.171529 0.0328927 0.114799 -3.35428 0.0265189 -0.0516135 0.0937352
318 1 0.994344 0.169942 0.0110685 0.151048 -3.3331 -0.057995 -0.114311 0.171762
321 1 0.023461 0.192056 0.0131063 0.221179 -3.32039 -0.0455996 0.177889 0.264437
323 1 0.0487728 0.192984 0.0389994 0.112681 -3.31123 -0.0143327 -0.193119 -0.0238217
322 1 0.0515836 0.214678 0.0150002 0.289167 -3.32183 0.107509 0.235503 0.108534
324 1 0.0227862 0.216263 0.0371784 0.308436 -3.32082 -0.352113 0.132096 -0.185084
327 1 0.105074 0.191788 0.0436591 0.122368 -3.33991 -0.050937 0.113936 -0.076691
328 1 0.0777721 0.215102 0.0409323 0.169034 -3.33193 0.107897 -0.0148482 -0.0568624
325 1 0.0787025 0.190627 0.0171165 0.282103 -3.32053 0.165119 0.119777 0.179337
326 1 0.108013 0.215127 0.0193898 7.55168 -3.38952 0.172741 -0.236393 -0.0143768
329 1 0.135555 0.190785 0.0224824 7.51918 -3.31987 -0.344669 0.0963865 -0.185147
335 1 0.172629 0.196739 0.014883 6.49016 -3.22312 0.125763 0.0716271 -0.293411
332 1 0.135185 0.215248 0.0450092 6.82881 -3.35967 -0.00366475 -0.0204941 -0.141133
336 1 0.17397 0.221798 0.0340303 7.57866 -3.21239 -0.224575 0.096192 0.299134
330 1 0.147367 0.2222 0.0132352 7.41997 -3.26532 -0.216344 -0.123599 -0.205049
1937 1 0.197885 0.197142 0.0376788 3.17274 -3.21002 0.112596 -0.235297 0.295703
339 1 0.21162 0.207323 0.0105022 9.27578 -3.29213 -0.199222 -0.00336904 -0.159655
340 1 0.211063 0.229253 0.0326884 9.72509 -3.22091 0.14241 0.346976 0.0883749
344 1 0.243079 0.231846 0.014939 0.471812 -3.28663 0.0248201 -0.0740082 -0.0156893
1941 1 0.23604 0.205327 0.0340691 6.54574 -3.25463 0.273067 0.234861 0.37404
343 1 0.268858 0.208546 0.0170248 0.368824 -3.32429 0.0603839 -0.0579624 -0.205477
348 1 0.298737 0.232299 0.0208207 0.177357 -3.33094 -0.0287586 0.0309511 0.0876401
1942 1 0.267096 0.231316 0.0417246 0.730222 -3.30728 0.236245 -0.272368 -0.0218975
1945 1 0.293714 0.208209 0.0421544 0.419577 -3.34152 0.285017 -0.0191446 0.027528
342 1 0.273462 0.232269 0.994446 0.11251 -3.31017 0.0418128 -0.0288148 -0.0502544
347 1 0.324475 0.208632 0.0209741 0.312256 -3.29973 -0.198401 -0.171301 0.205743
349 1 0.354316 0.207325 0.000337756 2.09588 -3.32314 0.144122 -0.0136665 0.224816
352 1 0.352187 0.231193 0.0266825 0.957873 -3.29502 0.177512 -0.183297 0.161031
346 1 0.328878 0.232231 0.999873 1.04975 -3.33322 -0.0943931 -0.0109596 -0.0849394
355 1 0.413414 0.208603 0.0127118 0.307405 -3.31542 -0.0134623 -0.298392 0.0149489
351 1 0.380558 0.207642 0.0297542 0.354786 -3.34107 -0.249642 -0.211144 -0.0946833
356 1 0.385752 0.231918 0.0104946 0.355189 -3.29824 0.144578 -0.0202468 0.0723778
1954 1 0.41044 0.229624 0.0362318 0.143661 -3.31472 0.105195 0.203102 0.323156
360 1 0.444121 0.230715 0.0189117 0.189458 -3.35554 -0.0651883 -0.0342797 -0.150995
359 1 0.471434 0.206194 0.0211352 0.294751 -3.33545 -0.00210551 0.171173 -0.0178198
1957 1 0.437406 0.20637 0.0394158 0.327391 -3.33318 0.203394 0.0120992 -0.06214
358 1 0.476511 0.231288 -0.000598716 0.249812 -3.32609 -0.202478 -0.0623924 0.0800873
361 1 0.504122 0.208013 0.000417957 6.89453 -3.33726 0.125133 -0.170666 -0.0125632
363 1 0.529112 0.206718 0.0257689 6.58489 -3.33987 0.14277 0.0331756 0.0920236
364 1 0.500993 0.230007 0.0249838 0.118792 -3.3313 -0.0280313 -0.0698653 -0.0190937
368 1 0.558267 0.229338 0.0297646 7.29446 -3.31019 -0.224958 0.163367 0.206389
362 1 0.53342 0.230308 0.00316979 6.82808 -3.32582 -0.0271757 0.0139542 0.138168
365 1 0.546494 0.198865 0.996598 6.50895 -3.31964 -0.29073 0.119161 -0.305226
371 1 0.623676 0.199682 0.0263767 0.328623 -3.33096 -0.0246437 -0.0388281 -0.0447678
367 1 0.572013 0.198987 0.0224342 6.815 -3.30412 -0.322572 0.0457516 -0.212161
372 1 0.596032 0.224047 0.0240324 6.44563 -3.27484 0.142506 -0.127016 0.00861482
369 1 0.601073 0.198731 -0.000202748 0.397235 -3.28332 -0.176524 0.0216699 0.273155
366 1 0.573366 0.221771 0.997844 7.87702 -3.27435 -0.303214 0.157395 0.134262
373 1 0.657232 0.198722 0.00664588 7.82869 -3.32731 -0.147828 0.0634435 0.046807
375 1 0.680058 0.199292 0.0320183 6.73718 -3.32724 -0.0808586 -0.190777 0.189999
376 1 0.652012 0.22295 0.0283766 6.90956 -3.32306 0.0209475 -0.119565 0.0525822
374 1 0.667932 0.229503 0.999894 8.11462 -3.32613 0.184807 0.0368443 -0.171936
380 1 0.694169 0.229222 0.0250431 7.70055 -3.32781 -0.00598096 0.208108 0.0150147
377 1 0.697821 0.204713 0.00336487 8.28328 -3.34344 0.0931844 0.128302 -0.122207
379 1 0.721454 0.205005 0.0289536 9.74871 -3.36623 0.246794 0.0516001 -0.0443945
378 1 0.726822 0.228906 0.00519343 6.99864 -3.34377 0.0956686 0.269884 0.0895337
387 1 0.819117 0.198617 0.0227728 0.334174 -3.325 0.108751 -0.281495 0.0680636
383 1 0.762502 0.199687 0.0201287 6.39372 -3.26055 -0.0500904 -0.105885 0.200972
384 1 0.751167 0.228119 0.0324342 6.15569 -3.31515 0.245285 0.0195511 -0.192194
388 1 0.790072 0.22199 0.0216011 6.15438 -3.30561 0.0721045 0.111413 0.0336545
1989 1 0.845952 0.196994 0.0467406 0.106592 -3.36711 -0.0871189 -0.118213 0.0807076
391 1 0.87856 0.195573 0.0265944 0.221128 -3.32845 -0.245155 0.163043 -0.0172816
392 1 0.850637 0.219435 0.0253479 0.432048 -3.34823 -0.206087 0.176034 -0.191429
1990 1 0.876351 0.219417 0.0491315 0.238137 -3.33776 -0.212369 0.070713 -0.144428
390 1 0.881594 0.219541 0.00414071 0.218625 -3.35279 -0.0634505 -0.0902983 -0.21205
389 1 0.851941 0.196295 0.00207862 0.169575 -3.33605 -0.0321545 0.121349 0.036145
393 1 0.908311 0.195416 0.0051898 0.264894 -3.35155 0.096123 -0.0418562 0.0843503
395 1 0.93509 0.195333 0.0307606 0.0768514 -3.35276 0.0156828 -0.0939311 0.047354
396 1 0.907052 0.218488 0.0281043 0.120451 -3.34042 0.0243896 0.178237 0.0246852
394 1 0.939095 0.217372 0.00773169 0.182379 -3.3414 0.0149504 0.227254 0.0214852
399 1 0.99337 0.194298 0.0349607 0.193626 -3.35637 -0.029845 -0.210698 -0.00750887
397 1 0.967645 0.194428 0.0108743 0.297918 -3.33495 -0.11423 -0.0344686 -0.203588
400 1 0.965625 0.217896 0.0326314 0.119865 -3.35815 -0.0965588 0.0414897 -0.0441423
398 1 0.997103 0.21764 0.0114915 0.207241 -3.35608 -0.0815857 -0.055845 0.124924
403 1 0.051494 0.238252 0.0380046 0.364567 -3.31879 -0.129943 0.362971 0.197054
401 1 0.0257907 0.23995 0.0137739 0.214717 -3.33564 -0.0930534 0.0725295 -0.0974486
404 1 0.0243257 0.263203 0.0362669 0.224419 -3.34903 -0.0383741 -0.0552175 -0.0741788
402 1 0.0548461 0.263223 0.014832 7.84437 -3.36478 -0.0168419 -0.0450109 0.0431087
405 1 0.0816902 0.23906 0.0171876 7.72071 -3.34249 -0.110911 -0.104389 -0.115245
407 1 0.108411 0.238595 0.0419406 7.39707 -3.33497 -0.0943059 0.100741 0.0632673
409 1 0.120324 0.246443 0.0119845 0.0986887 -3.30309 0.0502834 0.000437716 0.0250727
408 1 0.0809708 0.262132 0.039489 7.92513 -3.3629 -0.244015 0.252442 0.030468
412 1 0.119456 0.27067 0.0340345 0.215507 -3.35243 0.0181883 0.0264709 0.0293042
406 1 0.0937488 0.271028 0.00890365 0.273776 -3.3351 0.0125066 -0.133689 0.151207
410 1 0.133283 0.277468 0.00470118 0.562045 -3.33306 -0.143918 0.00836851 -0.0641227
411 1 0.147412 0.246155 0.0370341 0.545967 -3.29835 -0.242955 -0.0151956 -0.0281351
415 1 0.185876 0.253283 0.0333782 9.84176 -3.28982 0.106005 0.149971 0.168507
416 1 0.159783 0.277695 0.0300314 1.34788 -3.31286 -0.298729 0.00253107 0.070015