ITEM: TIMESTEP
4750
ITEM: NUMBER OF ATOMS
32000
ITEM: BOX BOUNDS pp pp pp
1.9202085276155536e+00 7.9079791472379299e+01
-6.9671345021082232e-01 8.1696713450205635e+01
-6.9715043621577166e-01 8.1697150436210762e+01
ITEM: ATOMS id type xs ys zs c_csym c_peratom fx fy fz
8 1 0.0502231 0.02512 0.0252557 0.0109221 -3.34766 -0.0858452 0.000226767 -0.0176992
83 1 0.0250858 0.050324 0.0251781 0.0166508 -3.35623 0.00465715 -0.0649248 0.0401982
1602 1 0.0252093 0.0252984 0.050263 0.00858683 -3.36062 -0.0136489 0.00126831 -0.0229565
1685 1 0.0505016 0.0500134 0.0501261 0.00836456 -3.35686 -0.0129441 0.0668179 0.00287409
1681 1 0.00013595 0.0504563 0.0503017 0.0181924 -3.34768 0.084867 -0.0917749 -0.0258891
81 1 0.000128406 0.0500931 0.000236229 0.00661252 -3.35654 -0.01874 -0.0356034 -0.0179944
5 1 0.0499674 -0.000289737 0.000419263 0.0277598 -3.34737 -0.0115524 0.0121261 -0.0969604
3 1 0.0250631 0.000123825 0.02521 0.00810559 -3.35551 -0.0230141 -0.0635874 0.00125621
2 1 0.0250994 0.0248231 0.000290006 0.0187131 -3.35067 0.0241418 0.0837875 0.0162047
12 1 0.100382 0.0247264 0.0249866 0.0251391 -3.35657 -0.0709872 0.0221286 0.0445372
87 1 0.0754141 0.0498474 0.0252528 0.0153607 -3.34648 -0.00324872 0.0178234 0.00629359
1606 1 0.075174 0.0248163 0.0499425 0.0168934 -3.34827 0.0207222 0.0214476 0.0498039
1689 1 0.100254 0.0498494 0.0503171 0.0201737 -3.34986 0.0288816 0.0231271 -0.0722545
6 1 0.0747296 0.0247973 0.000194637 0.0191918 -3.35124 0.0619741 -0.00467142 0.00501536
1609 1 0.099953 -7.9002e-05 0.0501839 0.018403 -3.36241 0.0677696 -0.00304183 -0.0148743
7 1 0.0746801 -0.000103274 0.0250985 0.0315118 -3.33803 0.118875 0.0479273 0.0153075
16 1 0.150053 0.0249943 0.0248245 0.027088 -3.34258 0.0338471 -0.125513 -0.0233433
91 1 0.125166 0.0498589 0.0250883 0.00748136 -3.35651 -0.0219431 0.075364 -0.0300755
1610 1 0.12571 0.0248902 0.0498755 0.0436342 -3.34656 -0.130732 -0.0262055 0.0346109
1693 1 0.150155 0.0498708 0.0498924 0.0131066 -3.34396 0.0168874 0.0161827 0.105147
93 1 0.14999 0.0494417 -8.83636e-05 0.0371232 -3.35967 0.019558 0.127648 0.0278142
10 1 0.124867 0.0248105 -0.000175753 0.0129529 -3.34693 0.0487413 -0.0185318 0.0278851
20 1 0.200479 0.0247779 0.0251745 0.0312117 -3.36022 -0.051998 -0.0400651 -0.0927636
95 1 0.174903 0.0495645 0.0254019 0.0369718 -3.34482 0.0795829 0.022746 -0.147595
1614 1 0.17529 0.0248101 0.0497576 0.0257374 -3.35721 -0.0319212 -0.057033 0.0786294
1697 1 0.200079 0.049652 0.0501911 0.0112957 -3.34926 0.0163039 0.0731213 -0.00040571
97 1 0.199846 0.0495676 5.61864e-05 0.0218198 -3.355 0.0594575 0.0036968 0.118952
15 1 0.175127 -0.000624818 0.0250164 0.0207196 -3.35494 0.0225882 0.128387 -0.034201
14 1 0.175116 0.0244826 -0.000123592 0.0132996 -3.35543 0.00916769 0.00602131 0.0993638
24 1 0.249788 0.0247638 0.0250275 0.0346622 -3.35857 0.0698223 -0.017764 -0.0272442
99 1 0.225245 0.0501298 0.0253069 0.048973 -3.35522 -0.0490637 -0.0818351 -0.0703665
1618 1 0.225011 0.0248233 0.0502169 0.0130909 -3.34583 0.0133465 0.00303037 -0.036828
1701 1 0.250263 0.0497307 0.0499816 0.00912091 -3.35525 -0.0645405 0.0252262 0.0253923
103 1 0.275417 0.049508 0.0254358 0.0526523 -3.34256 -0.0834077 0.00574303 -0.0666259
1622 1 0.275324 0.0245982 0.049766 0.0244542 -3.35041 -0.0618465 0.0202064 0.103506
19 1 0.225294 -0.000300683 0.024924 0.0147373 -3.35109 -0.0189917 -0.0072155 0.0352669
22 1 0.275018 0.0246687 -0.000263518 0.015349 -3.35301 -0.00955027 -0.00660982 0.0797215
28 1 0.299953 0.0244879 0.0253593 0.0314711 -3.33555 0.049242 0.0592687 -0.164851
1705 1 0.300656 0.0495758 0.0504502 0.0733775 -3.34059 -0.0919302 0.011167 -0.0848027
107 1 0.325105 0.0494604 0.0249272 0.0198004 -3.35505 -0.0268587 0.0106679 0.00397596
1626 1 0.324965 0.0243519 0.0499451 0.0407312 -3.34499 0.199369 0.107861 0.0841358
105 1 0.299569 0.0499495 0.00043122 0.0726939 -3.35659 0.101012 -0.104303 -0.109774
26 1 0.324761 0.0243664 0.000154978 0.0373593 -3.35993 0.0285976 0.102602 -0.0683019
32 1 0.350095 0.0244843 0.0247223 0.0262875 -3.35788 0.0178636 0.0737818 0.0655353
1709 1 0.349949 0.0498549 0.0499685 0.0201474 -3.35136 0.0265595 -0.1327 0.0175748
111 1 0.374716 0.0500376 0.0248342 0.0263232 -3.34483 0.0399799 -0.0774277 -0.0292561
1630 1 0.375158 0.0250619 0.0499999 0.0149754 -3.35923 -0.0852613 -0.0169663 0.0271658
31 1 0.375298 3.23818e-05 0.025208 0.0303137 -3.34633 -0.075496 -0.0345469 -0.0256609
36 1 0.399722 0.025239 0.0251713 0.0406927 -3.34733 0.123588 -0.0652753 -0.0408918
1713 1 0.400183 0.049987 0.049696 0.0243982 -3.34752 0.00260613 -0.0197213 0.116874
115 1 0.424695 0.0499251 0.0251474 0.0225705 -3.35279 0.0729207 -0.0285474 -0.0722861
1634 1 0.425398 0.0251206 0.0505723 0.0669555 -3.35577 -0.0531784 0.0193521 -0.137748
113 1 0.399744 0.0497799 -0.00017181 0.0233757 -3.35065 0.0355466 0.0435632 0.0387212
34 1 0.425135 0.0248829 8.04399e-06 0.0201042 -3.36322 -0.108891 0.0271 0.0198468
40 1 0.449939 0.0248461 0.0249178 0.0225409 -3.36026 -0.0025978 0.0922995 0.0433271
1717 1 0.449845 0.0505033 0.0501433 0.0355136 -3.3536 0.0233487 -0.114668 -0.0100605
119 1 0.475086 0.0503997 0.0253207 0.039093 -3.34497 -0.117982 -0.112244 -0.0670748
1638 1 0.474792 0.025309 0.0497846 0.0273881 -3.35205 -0.0332744 -0.0493111 0.0676335
117 1 0.450139 0.0499638 0.000439174 0.0367542 -3.35088 -0.0520447 -0.0224652 -0.0571116
1721 1 0.499689 0.0502518 0.0497648 0.0243937 -3.35286 0.108841 -0.0325715 0.155239
121 1 0.499738 0.0501524 0.000279635 0.0285751 -3.3476 0.010304 -0.0215966 -0.128711
44 1 0.499774 0.0250217 0.0249647 0.0125516 -3.3472 -0.02622 0.0186257 0.0141506
123 1 0.524899 0.0499737 0.0246631 0.0316962 -3.33911 -0.0717445 0.0939831 0.109563
1642 1 0.52473 0.0252115 0.0497539 0.0130036 -3.34339 -0.0696077 0.0229564 0.0795718
48 1 0.549357 0.0251346 0.0249307 0.0205941 -3.34182 0.106336 -0.0734992 0.0190532
1725 1 0.549386 0.0500503 0.0497844 0.0346852 -3.3476 0.0914488 0.0158691 0.0447347
125 1 0.549366 0.0502363 0.00011156 0.0456134 -3.34366 0.198711 -0.0410395 -0.0542705
127 1 0.574581 0.0499041 0.0250312 0.0191609 -3.36603 0.0556479 0.0817679 0.00462087
1646 1 0.574981 0.0253035 0.0497147 0.0403587 -3.363 -0.0720892 -0.0811839 0.0281438
52 1 0.60001 0.0249123 0.0249282 0.0178744 -3.3485 -0.042057 0.0298649 -0.00606601
1729 1 0.60008 0.0501546 0.0501276 0.0290549 -3.34681 -0.0818632 0.00147719 -0.0716038
46 1 0.574626 0.0248001 0.000212013 0.020334 -3.35805 -0.0222834 0.0778751 -0.0412213
1649 1 0.599769 -0.000199412 0.0499722 0.00808181 -3.3479 -0.0403234 0.00866226 0.00522162
47 1 0.574778 -0.000244693 0.0249719 0.0212569 -3.35123 -0.100495 0.0403904 0.0489325
131 1 0.62496 0.0498851 0.025044 0.0099975 -3.34344 -0.0464699 0.0356398 -0.0364969
1650 1 0.624634 0.0247485 0.0497848 0.0162061 -3.34728 0.0283186 0.0238361 0.0659587
51 1 0.624678 -0.000317934 0.0248642 0.0200469 -3.34851 0.0341145 0.0411478 -0.00056454
56 1 0.649746 0.0250529 0.0250144 0.0131521 -3.34273 -0.00416616 -0.0540845 -0.0266391
1733 1 0.649679 0.0499976 0.0498445 0.0274944 -3.34438 0.0697225 -0.0506609 0.0841867
1653 1 0.649732 0.000143803 0.049716 0.0209547 -3.35049 -0.000987244 -0.0808647 0.0512475
135 1 0.675286 0.0497851 0.0253009 0.0371229 -3.34788 -0.10813 0.0596334 -0.0515732
1654 1 0.674628 0.0247901 0.0497088 0.026773 -3.35686 0.10679 -0.0135729 0.0972657
60 1 0.699869 0.0247302 0.0250867 0.0140227 -3.33534 -0.0033279 0.0128659 -0.0107943
1737 1 0.700006 0.050044 0.0499307 0.0165644 -3.3473 0.0584712 -0.0228707 0.0952635
137 1 0.699731 0.0499215 0.000545738 0.0584093 -3.35297 0.0229804 -0.0130731 -0.182594
55 1 0.674593 -0.000154611 0.0246992 0.0186303 -3.34632 0.0235228 0.0212971 0.0919728
1657 1 0.700052 -0.000322502 0.0498762 0.0320404 -3.3529 -0.115889 0.0917544 0.0195911
139 1 0.724854 0.0498237 0.0249841 0.0135603 -3.34402 0.011552 0.04082 -0.0429331
1658 1 0.724481 0.0248863 0.0499387 0.0292534 -3.34174 0.0717639 -0.0223583 0.0401762
59 1 0.724866 6.03259e-05 0.0248863 0.0127854 -3.35582 0.0606529 -0.0495502 -0.0266227
64 1 0.749829 0.0250431 0.0250385 0.00801431 -3.35386 0.0353287 -0.0216587 -0.0134569
143 1 0.775363 0.0500019 0.024918 0.0363502 -3.34613 -0.184216 0.0605615 0.0500135
1662 1 0.775014 0.0252433 0.0499251 0.0210747 -3.35706 -0.0418295 -0.0997313 0.0450929
1741 1 0.749264 0.049765 0.049857 0.0810465 -3.35158 0.177528 0.0837768 0.00852425
63 1 0.775152 0.000401884 0.0251503 0.0321888 -3.34531 -0.0693451 -0.0712679 -0.00658876
1661 1 0.749752 -0.000122263 0.0501098 0.0143998 -3.35735 0.0179381 0.0675813 -0.0480992
68 1 0.800062 0.0251573 0.0248507 0.0158013 -3.34897 0.0927487 -0.0239559 0.0627994
147 1 0.825206 0.0500921 0.0252949 0.0150074 -3.35556 -0.01878 0.00918818 -0.038284
1666 1 0.825254 0.0251795 0.0501874 0.0202833 -3.35927 -0.084184 -0.0414184 -0.0510029
1745 1 0.799602 0.0500473 0.050014 0.0391259 -3.35237 0.132459 0.00056492 0.0200886
1665 1 0.800129 2.1666e-05 0.0500285 0.0205961 -3.34975 -0.0614599 0.114573 0.0410454
67 1 0.825083 0.000182082 0.025119 0.0123474 -3.35004 -0.0287294 0.0123622 -0.0466769
65 1 0.800062 -0.000235027 8.08265e-05 0.0224268 -3.353 -0.0315061 0.0784473 -0.00178558
72 1 0.849977 0.025123 0.0250574 0.00922907 -3.3431 0.00267353 -0.0292726 0.0193152
151 1 0.874916 0.0498685 0.0250075 0.0167766 -3.35193 0.0297815 0.108983 -0.0226703
1670 1 0.874896 0.0252424 0.0499513 0.0170924 -3.34775 0.0121707 -0.0326887 0.055341
1749 1 0.850084 0.0502273 0.0503491 0.0294997 -3.33866 -0.0092035 -0.0796325 -0.0765061
1669 1 0.850243 -0.000218442 0.049945 0.0423735 -3.35467 -0.0528284 0.0752897 0.0462091
76 1 0.899492 0.0251373 0.0248184 0.0434313 -3.34937 0.162246 0.0278653 0.0298155
155 1 0.925415 0.0501942 0.0248787 0.0325293 -3.35509 -0.0709256 -0.0634271 0.0936559
1674 1 0.924793 0.0249187 0.0500448 0.0342109 -3.35974 0.0706337 0.0535327 -0.017658
1753 1 0.900314 0.0500557 0.049935 0.0218575 -3.35929 0.0138947 -0.0245262 0.0489041
1673 1 0.899473 0.000185708 0.0498037 0.0571047 -3.34922 0.0958904 -0.0676654 0.0902965
4 1 1.00001 0.0250469 0.0250574 0.00912128 -3.36171 -0.0134996 0.012164 0.0679411
78 1 0.975064 0.0249169 1.23076e-05 0.0157902 -3.35454 0.0254331 0.0693728 0.0376789
80 1 0.950303 0.0254713 0.0250315 0.0426258 -3.35621 -0.0322212 -0.103132 0.0370969
159 1 0.975257 0.0502869 0.0254296 0.0207634 -3.35077 -0.00829885 -0.0339253 -0.1144
1678 1 0.975211 0.0252564 0.0502202 0.0121989 -3.35082 0.0327492 -0.044818 -0.0439433
1757 1 0.950155 0.0501197 0.0502106 0.00826829 -3.34837 -0.0301709 -0.0505995 0.0371758
79 1 0.974812 -0.000261348 0.0250852 0.0323413 -3.35482 0.0656282 0.115215 0.0288129
157 1 0.950255 0.0502245 -0.000106457 0.0256883 -3.34218 0.0428264 -0.0233773 0.104073
88 1 0.0505142 0.0749943 0.0246123 0.0567233 -3.35306 -0.0235927 0.0376941 0.174668
163 1 0.0252683 0.0999642 0.0251036 0.00846618 -3.35792 0.00491109 0.0150552 -0.0151667
1682 1 0.0254323 0.0751552 0.0502926 0.0101938 -3.34949 -0.0052932 -0.0665995 -0.0898936
1765 1 0.0503373 0.0996693 0.0500308 0.0335854 -3.34528 0.00165345 0.0735658 -0.0335478
161 1 0.000144154 0.100182 -2.65935e-05 0.0081386 -3.35526 -0.0299505 -0.0593887 0.00748107
165 1 0.0504057 0.10018 -0.000114954 0.0152093 -3.36061 -0.0807081 -0.0430985 0.0160642
92 1 0.100144 0.0750292 0.0252664 0.0110995 -3.34627 0.0512742 -0.00519916 0.00682344
167 1 0.0752793 0.100485 0.0248702 0.0496622 -3.34721 -0.0378647 -0.10134 0.111754
1686 1 0.075646 0.0752721 0.0499416 0.040425 -3.35886 -0.0630824 -0.0870766 0.0689017
1769 1 0.10021 0.100217 0.050572 0.0331396 -3.35319 -0.0709766 0.0362964 -0.0553673
169 1 0.100395 0.099956 0.000606618 0.0493931 -3.34342 -0.0631453 0.0104114 -0.135751
96 1 0.150463 0.0749887 0.0253256 0.0271151 -3.35072 -0.149213 -0.0312817 -0.0553089
171 1 0.12498 0.100242 0.0256299 0.046414 -3.34984 0.082375 -0.0679787 -0.0443837
173 1 0.150093 0.0999634 0.000553058 0.0297869 -3.34437 -0.0251744 -0.0021443 -0.0498458
1690 1 0.125173 0.0750284 0.0501994 0.0084057 -3.35851 0.0179598 -0.0178446 -0.0234572
1773 1 0.150513 0.0998935 0.0502352 0.0234409 -3.34822 -0.0885672 0.0150006 -0.0132768
90 1 0.125132 0.0751859 0.000207455 0.0208263 -3.35435 0.015812 -0.13303 0.0835015
100 1 0.199842 0.0746121 0.0252103 0.0207826 -3.34334 0.0436661 -0.0265253 -0.0243228
175 1 0.17537 0.0998708 0.0250094 0.0228128 -3.34298 0.00840746 0.0728555 0.064404
1694 1 0.175079 0.0748249 0.0501129 0.0100116 -3.34412 0.0250422 -0.025808 0.0826744
1777 1 0.200071 0.0996755 0.0501426 0.0168251 -3.34621 -0.0644741 0.0652594 0.053334
94 1 0.175 0.0748233 0.000511664 0.0237557 -3.35122 -0.0287245 -0.0577226 -0.103549
177 1 0.200155 0.09972 9.43569e-05 0.0123615 -3.34897 -0.0150201 0.0243871 -0.0550979
104 1 0.25043 0.0745066 0.0250029 0.055214 -3.35165 -0.0814302 0.087738 0.0568207
179 1 0.224681 0.0995631 0.0249929 0.0350468 -3.35204 0.116981 0.0476316 -0.00853219
1698 1 0.224835 0.0752568 0.050342 0.0722754 -3.35001 0.0820431 -0.149265 -0.0840706
1781 1 0.250145 0.0999432 0.0496593 0.0251167 -3.35373 -0.0267663 -0.0276147 0.0586039
183 1 0.274584 0.100354 0.0247393 0.0759562 -3.34433 0.106318 -0.14275 0.0299664
1702 1 0.275267 0.0748195 0.0498773 0.0180558 -3.34031 -0.073882 -0.0241571 0.0298111
98 1 0.225191 0.0745169 0.000203025 0.018818 -3.35309 -0.0249264 0.0103979 -0.0142378
108 1 0.299813 0.0746475 0.0253055 0.0241689 -3.35548 0.0367545 0.0613846 -0.091674
1785 1 0.299925 0.0996528 0.0498034 0.0190428 -3.34481 0.0960752 0.0696903 -0.0387079
187 1 0.324911 0.0995707 0.0246296 0.0306681 -3.36139 0.00164981 0.0305462 0.0886478
1706 1 0.325113 0.0745602 0.0500844 0.00786358 -3.34565 -0.0110905 0.0974341 -0.00950967
185 1 0.299644 0.0997535 -2.64138e-05 0.012237 -3.35127 0.0324361 -0.0202228 0.0101208
112 1 0.350026 0.0744889 0.024987 0.0174019 -3.3491 -0.0415967 0.115673 -0.0390657
1789 1 0.349877 0.0996622 0.0499758 0.0147701 -3.35844 -0.00361298 -0.0151995 0.0328348
189 1 0.349961 0.0996573 -9.63473e-05 0.021433 -3.34293 -0.0597396 0.0174508 0.0119612
191 1 0.374657 0.100123 0.0248753 0.0157031 -3.34734 0.0130829 -0.0411993 -0.0042945
1710 1 0.37528 0.074601 0.049611 0.040389 -3.34905 -0.0568151 0.108321 0.0490087
110 1 0.374937 0.0749481 -0.000293147 0.0151974 -3.34565 -0.00999324 -0.0059831 0.0396182
116 1 0.39988 0.0751038 0.0246215 0.0169433 -3.34372 -0.00865601 -0.0234682 0.0231162
1793 1 0.399675 0.10015 0.049502 0.0485121 -3.34879 -0.00591099 -0.0461081 0.0761293
195 1 0.424837 0.100066 0.0250043 0.00808665 -3.35123 -0.044227 0.0303614 -0.0800523
1714 1 0.424837 0.0752174 0.0498213 0.0143332 -3.34432 -0.0296598 -0.024679 0.0144318
114 1 0.424848 0.0748765 -2.34184e-05 0.009149 -3.35285 -0.00805993 0.0366154 -0.0170248
120 1 0.449615 0.0749353 0.024913 0.0234618 -3.34775 0.0668882 0.0436818 0.0356985
1797 1 0.44978 0.10007 0.0497137 0.0137238 -3.35029 0.0255125 0.0496997 0.0380414
199 1 0.47493 0.100456 0.0248919 0.0432269 -3.35275 -0.0413712 -0.132843 0.0616595
1718 1 0.474741 0.0753895 0.0500643 0.0142907 -3.34997 -0.00356712 -0.0560148 -0.0164535
1801 1 0.499948 0.099807 0.0500294 0.0217794 -3.34697 -0.036371 0.0919468 -0.0230008
124 1 0.499861 0.075019 0.0251898 0.0174967 -3.34917 0.0300359 0.0728924 -0.038586
118 1 0.47497 0.0748834 0.000242555 0.0110856 -3.34753 0.000953895 0.0320962 -0.0649754
203 1 0.524522 0.100287 0.0247829 0.0460261 -3.35218 0.0735383 -0.130145 0.0959568
1722 1 0.524867 0.0750033 0.0499681 0.0100448 -3.35084 0.0070903 0.00198019 -0.0306654
122 1 0.524631 0.0752099 -7.3449e-05 0.0177131 -3.35066 0.0211409 -0.0210121 0.0377424
128 1 0.549898 0.0752448 0.0250851 0.0259449 -3.36184 -0.0415242 -0.0233176 -0.0345023
1805 1 0.549856 0.10009 0.0500235 0.0183862 -3.34853 -0.037352 -0.0102393 0.000834767
201 1 0.499482 0.100065 0.000131143 0.0213631 -3.33807 -0.00553003 -0.04161 -0.0592795
207 1 0.575138 0.0995029 0.0251847 0.0475215 -3.35306 -0.0460067 0.086591 -0.0491693
1726 1 0.574582 0.0754273 0.0505516 0.0783518 -3.34733 0.0372541 -0.147595 -0.165897
132 1 0.600123 0.0747115 0.0252093 0.0231871 -3.35822 -0.0973959 0.0110748 0.000265881
1809 1 0.599866 0.0997775 0.0503329 0.0184833 -3.35325 0.0303352 0.0289491 -0.054459
126 1 0.57476 0.0750248 -0.000251337 0.0350151 -3.34982 0.00357112 -0.046864 0.11987
211 1 0.62525 0.0997402 0.0251875 0.0209954 -3.34935 -0.0679918 0.0204428 0.00565999
1730 1 0.625217 0.0750636 0.0500179 0.0198769 -3.35067 -0.0654369 0.00589715 0.0926519
136 1 0.650256 0.0749178 0.025536 0.0519503 -3.34651 -0.0449788 -0.0290223 -0.155377
1813 1 0.650331 0.100006 0.050042 0.0276357 -3.34904 -0.00539624 -0.033719 0.0717591
215 1 0.674944 0.0995965 0.0249135 0.0370398 -3.35492 -0.0096245 0.134475 0.00497031
1734 1 0.675064 0.0746699 0.0503812 0.0395175 -3.34488 0.00587778 0.0678842 -0.0532558
140 1 0.70016 0.0750167 0.0250668 0.0240893 -3.3474 -0.0455029 -0.00497649 0.00747166
1817 1 0.699532 0.100002 0.0500868 0.035357 -3.35184 0.0515226 0.00219201 -0.0183491
217 1 0.699834 0.0997864 -8.28726e-05 0.0116911 -3.35005 0.0396422 0.0982794 0.0342233
219 1 0.724869 0.0999373 0.0247579 0.0182586 -3.34415 -0.059238 -0.0345989 0.0138277
1738 1 0.724778 0.0751507 0.0502049 0.0258783 -3.34937 0.00485809 -0.0322352 -0.0198167
144 1 0.749663 0.0749339 0.0251902 0.0383636 -3.35577 0.0204653 -0.0909367 -0.104683
223 1 0.774642 0.0997603 0.0245882 0.0446336 -3.35207 0.171056 0.0479559 0.0720779
1742 1 0.774894 0.075013 0.0499522 0.0161497 -3.36302 0.0339214 -0.0253117 0.0185413
1821 1 0.750054 0.0997854 0.0496539 0.0217135 -3.34491 0.0268051 0.0382933 0.149309
148 1 0.800334 0.0751268 0.0249901 0.017391 -3.35357 -0.0607776 0.0649109 0.0399507
227 1 0.825456 0.100126 0.0251976 0.0198413 -3.3499 -0.0686186 0.0221389 -0.0823992
1746 1 0.825177 0.075044 0.0500198 0.00835266 -3.34547 -0.0506425 -0.0158166 0.0235259
1825 1 0.800215 0.100156 0.0499844 0.0194185 -3.3526 -0.0666739 -0.0590089 -0.0516442
146 1 0.825211 0.0748921 0.000159052 0.0160699 -3.35807 0.0611462 0.0279805 -0.0271459
152 1 0.85043 0.0752708 0.0254864 0.0694283 -3.35088 -0.00911144 -0.116034 -0.175212
231 1 0.875232 0.100093 0.0249427 0.016458 -3.34792 0.026495 -0.0468461 -0.0767708
1750 1 0.875421 0.0745264 0.0502352 0.0512299 -3.34008 -0.0080958 0.0960349 -0.0344313
1829 1 0.850565 0.0997717 0.0498973 0.036101 -3.34261 -0.0556557 0.0484024 0.108733
229 1 0.849963 0.0998565 -1.07862e-05 0.0292757 -3.362 0.0647853 0.0357585 -0.00646198
156 1 0.900117 0.0749625 0.0249401 0.00988895 -3.3554 -0.0672431 -0.0291905 0.0172308
235 1 0.924725 0.099707 0.0248156 0.0475191 -3.35235 0.0651931 0.0715549 0.0568652
1754 1 0.925283 0.075027 0.0504872 0.0308915 -3.35303 -0.0677035 0.016299 -0.100879
1833 1 0.899976 0.0999709 0.0499874 0.0163791 -3.34703 0.00967124 -0.0277561 0.0298458
1761 1 1.00034 0.0998211 0.0503928 0.0247337 -3.34615 -0.0205082 0.0497753 -0.0833175
84 1 1.0001 0.0753137 0.0251064 0.0145361 -3.34975 0.0200008 -0.0412902 0.00854651
160 1 0.950225 0.0751396 0.025416 0.0171512 -3.35028 -0.0120173 -0.00229712 -0.0634678
239 1 0.975266 0.099996 0.0253316 0.0166947 -3.35038 0.0131208 0.0333357 -0.0446149
1758 1 0.97523 0.0749493 0.0503667 0.0111759 -3.34551 -0.0231611 0.0615598 -0.0103811
1837 1 0.950311 0.100211 0.0501058 0.0188816 -3.35632 -0.0289063 -0.0372594 0.00802728
237 1 0.950285 0.099988 0.000540972 0.0618072 -3.35282 -0.048233 -0.0108212 -0.128442
158 1 0.975052 0.0750922 -1.5608e-05 0.015193 -3.35083 0.0561976 0.0180022 0.071581
162 1 0.0248764 0.124952 -0.000145924 0.0210986 -3.34641 0.101661 0.0256061 0.0349335
168 1 0.049955 0.125108 0.0249911 0.0190427 -3.33748 0.0238789 -0.0980772 -0.0252151
243 1 0.0257075 0.149638 0.0249708 0.0873933 -3.35073 -0.216411 0.127533 -0.0365319
1762 1 0.0252816 0.12474 0.050383 0.0334027 -3.34729 0.00459856 0.0159296 -0.0673333
1845 1 0.0500564 0.149886 0.0502075 0.0233105 -3.34317 0.0227149 0.139418 0.0141451
245 1 0.0500344 0.150096 -9.65322e-05 0.0180874 -3.35397 -0.0211837 -0.0273704 -0.0186357
172 1 0.10004 0.125028 0.0250506 0.015433 -3.34919 0.0197247 0.0666661 0.0707646
247 1 0.0749961 0.14981 0.0250489 0.0133595 -3.35161 0.0312338 0.0501288 -0.0114727
1766 1 0.074557 0.125197 0.050086 0.0682467 -3.35144 0.217653 -0.0758696 0.0349104
1849 1 0.100186 0.150029 0.0504123 0.0285172 -3.35504 0.0143613 -0.0192979 -0.0995364
176 1 0.150393 0.124891 0.0252679 0.0248084 -3.35825 -0.0389709 0.0210854 -0.0299569
251 1 0.125198 0.149822 0.0248069 0.00863761 -3.35502 0.0230055 -0.00972083 0.0131914
1770 1 0.125062 0.125211 0.0501743 0.0198736 -3.35078 0.0509338 -0.0515299 -0.0148807
1853 1 0.150118 0.150001 0.0501231 0.00811209 -3.35245 0.0383243 -0.0128649 0.0317595
253 1 0.150273 0.149879 -0.000563729 0.0390826 -3.35724 -0.032542 -0.00214896 0.119039
180 1 0.200171 0.125018 0.0249951 0.0216867 -3.34607 -0.117222 -0.0656424 0.000614063
255 1 0.174837 0.149933 0.0251681 0.0221746 -3.34293 0.0273805 -0.0641206 -0.0546435
1774 1 0.175177 0.124794 0.0506078 0.0381814 -3.35068 0.00217651 0.0239985 -0.104241
1857 1 0.199742 0.149713 0.0498904 0.0330981 -3.34169 0.0328642 0.0452352 0.0907269
174 1 0.17508 0.124794 -0.000177467 0.0185256 -3.35534 0.0071837 0.0195384 0.0402574
184 1 0.249807 0.125147 0.0249016 0.0199221 -3.35112 -0.0345335 -0.0369355 0.0351843
259 1 0.224612 0.149982 0.0252028 0.022665 -3.34548 0.0809643 0.0280991 -0.0799587
1778 1 0.224754 0.124852 0.0498236 0.021596 -3.35015 0.0923663 0.00694073 0.0711116
1861 1 0.250195 0.149948 0.0500661 0.0190333 -3.35922 -0.0109683 -0.0294009 -0.0493354
263 1 0.275253 0.149879 0.0249548 0.0205317 -3.35012 -0.0508529 0.0588717 -0.00902519
1782 1 0.275098 0.124641 0.049931 0.0290016 -3.35029 0.0049955 0.102263 0.0029059
178 1 0.22494 0.124926 -3.64665e-05 0.00735125 -3.3538 0.00862861 -0.0237893 -0.0522602
261 1 0.249972 0.149793 0.000125678 0.0197774 -3.35663 -0.0168589 0.0810432 -0.0149707
188 1 0.299853 0.125098 0.0245178 0.0411939 -3.34977 0.0447952 -0.0987344 0.094089
1865 1 0.299904 0.149966 0.0499878 0.00949258 -3.35342 -0.00319181 0.00749022 0.0531566
267 1 0.324556 0.150082 0.0249448 0.0157741 -3.34601 0.018342 0.0118515 0.0126762
1786 1 0.324736 0.124726 0.0497528 0.0242518 -3.34961 0.026137 -0.0253758 0.0424185
186 1 0.325191 0.124762 6.20014e-05 0.0568212 -3.3457 -0.0682016 -0.024536 -0.0243377
192 1 0.349985 0.124925 0.0253173 0.0547507 -3.34285 -0.100269 0.018238 -0.106833
1869 1 0.349065 0.150053 0.0500057 0.0771666 -3.3498 0.143289 0.0240749 0.01395
271 1 0.374465 0.150401 0.0249988 0.0229041 -3.35964 -0.00162751 -0.0304788 -0.033247
1790 1 0.374197 0.125 0.0501143 0.0684856 -3.34516 0.124783 0.0237052 0.0172867
190 1 0.374131 0.125362 -0.000260914 0.0760538 -3.36087 0.139647 -0.0146652 0.0887739
196 1 0.399619 0.125363 0.0255581 0.0791837 -3.3571 -0.0617636 -0.0418645 -0.2041
1873 1 0.399582 0.150427 0.0498237 0.0511239 -3.35364 0.0681521 -0.0903286 0.0607077
275 1 0.424852 0.150077 0.0249072 0.0097957 -3.34307 0.00264344 0.00662877 0.0709836
1794 1 0.42486 0.125145 0.0498754 0.0112849 -3.3458 0.0165682 0.0270984 0.0236758
273 1 0.399828 0.150006 0.000114672 0.0185615 -3.35866 -0.0497075 0.00892302 -0.0456301
194 1 0.42459 0.125095 -4.50211e-05 0.0124826 -3.36284 0.00150015 -0.0845707 -0.0010113
200 1 0.449586 0.125064 0.0248971 0.0149454 -3.34215 0.041813 -0.00566803 0.00311415
1877 1 0.449953 0.149877 0.0499839 0.0121409 -3.36299 -0.00849269 0.0619542 -0.00799674
279 1 0.474749 0.149985 0.0243543 0.0517756 -3.35713 0.0543031 0.0188472 0.133768
1798 1 0.475025 0.125217 0.0497359 0.0259325 -3.35426 -0.0531207 -0.0517127 0.0559584
277 1 0.449569 0.149749 -1.34452e-05 0.0293523 -3.34642 0.0548701 0.0672945 -0.0890831
204 1 0.49977 0.12506 0.0250853 0.0229556 -3.3463 0.0280167 0.0634091 -0.0465554
283 1 0.525073 0.150133 0.0244076 0.0716614 -3.34747 0.0200117 -0.0605065 0.145273
1802 1 0.524971 0.125018 0.0500917 0.0213009 -3.34093 -0.0928178 -0.0236085 -0.0433149
1881 1 0.500121 0.149864 0.0497989 0.0120845 -3.3623 -0.0468718 0.0740279 -0.00935711
208 1 0.549796 0.124713 0.0251788 0.0210969 -3.34951 0.0566154 0.0211763 -0.101904
1885 1 0.549804 0.149485 0.0499587 0.0448617 -3.35061 0.0323912 0.149573 0.00417895
287 1 0.574817 0.14974 0.0248784 0.0169885 -3.35506 0.0289051 0.00598632 0.000813287
1806 1 0.574862 0.124862 0.0497698 0.0332953 -3.34468 0.0118919 0.006465 0.101494
212 1 0.599895 0.124871 0.0253471 0.019347 -3.35207 0.02852 0.00451814 -0.0170039
1889 1 0.599777 0.150059 0.0504024 0.0427322 -3.34658 0.075885 -0.0807029 -0.109597
206 1 0.575162 0.124704 0.000177621 0.0272992 -3.35466 -0.068544 0.0169332 0.00668219
289 1 0.59985 0.150067 -0.000470715 0.0682365 -3.35154 0.00918538 -0.0335263 0.148524
291 1 0.624862 0.149671 0.0254041 0.0357869 -3.35592 -0.0380544 0.0912355 -0.0638638
1810 1 0.625141 0.124568 0.0502173 0.0257984 -3.34934 -0.0429961 0.0890307 -0.00799955
216 1 0.649579 0.124958 0.0251082 0.0220574 -3.34406 0.0995681 -0.0418903 -0.0403223
1893 1 0.649921 0.149986 0.0501968 0.0152276 -3.35592 -0.0375215 -0.005493 -0.0263931
214 1 0.674755 0.125111 0.000182076 0.0154503 -3.36108 0.0296062 -0.0742029 0.00442918
295 1 0.674846 0.149882 0.0249797 0.0100425 -3.34757 0.00755344 -0.00725839 0.0536034
1814 1 0.674746 0.125065 0.0498578 0.0255149 -3.35169 0.0284683 -0.0231299 0.0260709
220 1 0.69991 0.125007 0.0252258 0.0212483 -3.35194 -0.0300595 -0.0791836 -0.0907618
1897 1 0.700308 0.149858 0.049991 0.0250651 -3.35056 -0.0642387 -0.0386149 0.0101752
299 1 0.724778 0.149831 0.0247891 0.0165289 -3.34233 0.0894202 -0.000784102 0.0478111
1818 1 0.725137 0.124452 0.049695 0.0495502 -3.35649 -0.00898532 0.085842 0.11296
224 1 0.749798 0.124547 0.0247273 0.0229612 -3.34904 0.0809737 0.136363 0.015702
303 1 0.774928 0.149901 0.0247064 0.0169878 -3.35352 0.0162196 -0.0655548 0.122744
1822 1 0.775026 0.124774 0.0499701 0.0110084 -3.36116 -0.0296432 0.0566143 -0.04092
1901 1 0.749865 0.149928 0.049681 0.0177603 -3.36101 0.0815086 -0.0473141 0.0361769
218 1 0.724997 0.125169 -4.05697e-05 0.0133747 -3.35266 -0.0330573 -0.0511973 -0.0308646
228 1 0.80014 0.12504 0.0250469 0.00661471 -3.36227 -0.0388277 -0.0507011 -0.0427991
307 1 0.825404 0.149891 0.0254794 0.055208 -3.34717 -0.0770886 0.0447332 -0.143945
1826 1 0.825439 0.124904 0.0500056 0.0196197 -3.35701 -0.0155295 0.0141643 0.0542415
1905 1 0.80012 0.149871 0.0499766 0.0125949 -3.35125 -0.0590395 -0.00023465 0.00765958
226 1 0.825111 0.1254 -6.83994e-05 0.0326824 -3.34988 0.0255383 -0.100211 0.0814884
232 1 0.85046 0.125243 0.0247432 0.0415936 -3.33943 -0.101102 -0.0929383 0.0301139
311 1 0.874792 0.149969 0.0251189 0.0265736 -3.34486 0.0441744 0.0734574 -0.0531301
1830 1 0.874762 0.125004 0.0499362 0.0328017 -3.3535 0.0809427 0.0202925 0.113268
1909 1 0.849962 0.150155 0.050251 0.0177382 -3.35003 0.0898056 -0.00294963 0.0291338
309 1 0.849955 0.150102 -0.000176427 0.016682 -3.34132 0.0513215 -0.00671181 0.0421698
230 1 0.875028 0.125321 -0.000205665 0.025447 -3.35905 0.0860396 -0.0906214 0.0259363
236 1 0.900015 0.125144 0.025088 0.0190377 -3.35176 -0.000395414 -0.0431659 -0.0828461
313 1 0.900347 0.150049 0.000117709 0.0260773 -3.34974 -0.102565 -0.0671835 -0.0262016
315 1 0.925213 0.14996 0.0249142 0.00817811 -3.34619 -0.0351193 -0.0341233 0.0345288
1834 1 0.924901 0.124525 0.0498683 0.0505342 -3.35137 0.0536981 0.104669 0.0118017
1913 1 0.899843 0.149991 0.0498739 0.0166498 -3.35805 0.070915 -0.000894331 0.05678
234 1 0.92493 0.124844 -0.00033627 0.03722 -3.3575 0.0471297 0.0280421 0.104941
164 1 1.00017 0.124909 0.0249623 0.0075405 -3.35839 0.0107513 0.041878 0.0104876
1841 1 1.00042 0.149815 0.0499878 0.0284572 -3.351 -0.00453548 0.0929329 -0.0654361
240 1 0.950055 0.124974 0.0249919 0.0104927 -3.35737 -0.00652225 -0.0157005 -0.00876517
319 1 0.97514 0.150195 0.0248574 0.0162293 -3.35234 0.0150225 -0.0700903 0.011113
1838 1 0.97541 0.125198 0.0498994 0.0177526 -3.34512 -0.0534331 -0.0641389 -0.0308236
1917 1 0.949905 0.149774 0.0497876 0.0209888 -3.34583 0.0139141 0.0274639 0.0175118
238 1 0.974863 0.125027 -0.000283096 0.0309827 -3.3479 0.0710681 -0.0333348 0.0765627
248 1 0.0502112 0.175068 0.0248038 0.0210479 -3.34703 -0.0206142 -0.0716651 0.0865639
323 1 0.0253197 0.199847 0.0250541 0.0302057 -3.35365 -0.0773192 0.0416095 -0.0339158
1842 1 0.0249973 0.174796 0.0497551 0.0348568 -3.36626 0.0558473 0.0635821 0.0874461
1925 1 0.0501289 0.200285 0.0501278 0.0321305 -3.36117 0.032012 -0.126521 -0.0380949
242 1 0.0246944 0.175082 -0.00014119 0.0346003 -3.35647 0.0658235 -0.0667664 0.00333682
252 1 0.100294 0.174689 0.0246907 0.0164967 -3.34637 0.00255933 0.0201368 0.0782515
327 1 0.0751543 0.199463 0.0248127 0.0297525 -3.34312 0.0409918 0.105281 0.0453504
1846 1 0.0756314 0.174835 0.0498866 0.0440185 -3.36487 -0.139983 0.0486265 0.04718
1929 1 0.100138 0.20029 0.049768 0.0369493 -3.3521 0.0923335 -0.0979974 0.0186834
329 1 0.100575 0.199563 -0.000232831 0.0394108 -3.3463 -0.111794 0.159516 0.0531147
246 1 0.075212 0.174814 -0.000156805 0.00735353 -3.34515 0.0266024 -0.00833376 -0.0245312
256 1 0.150291 0.174558 0.0248952 0.0291713 -3.35224 -0.0054985 0.0832829 0.00830769
331 1 0.125446 0.199842 0.0247016 0.0172066 -3.3519 -0.006897 0.0131701 0.0829002
1850 1 0.125211 0.175007 0.0498438 0.0130358 -3.36364 -0.0436016 -0.00130403 0.0254304
1933 1 0.150252 0.199827 0.050132 0.0174855 -3.35048 -0.0564394 -0.00155551 -0.0552254
333 1 0.150353 0.199785 8.69358e-05 0.0241076 -3.34657 -0.035251 0.057814 -0.0257038
260 1 0.199451 0.174971 0.0250971 0.0500112 -3.34917 0.115036 -0.00543403 -0.0195862
335 1 0.17499 0.199925 0.025301 0.0415991 -3.34003 0.0240052 -0.0496122 -0.126379
1854 1 0.175305 0.17515 0.0503459 0.0419103 -3.34738 -0.084777 -0.0640923 -0.047483
1937 1 0.200171 0.200294 0.0499523 0.047983 -3.34243 -0.00196543 -0.133221 -0.00913405
337 1 0.200303 0.199786 -0.000198655 0.0243645 -3.35242 -0.120548 0.0653718 0.0120685
264 1 0.249894 0.174741 0.02489 0.0200975 -3.35881 0.0718909 -0.000659746 0.0195994
339 1 0.225092 0.199723 0.0249869 0.022112 -3.34343 -0.0378708 0.0181769 0.0261887
1858 1 0.224825 0.174662 0.0500076 0.0188316 -3.36233 0.0324873 0.0462845 -0.0105043
1941 1 0.250134 0.199779 0.0498854 0.00874979 -3.34756 -0.0354803 -0.0179803 0.0175104