ITEM: TIMESTEP
1000
ITEM: NUMBER OF ATOMS
32000
ITEM: BOX BOUNDS pp pp pp
4.0131909956902351e-01 8.0598680900425819e+01
-1.4624858941466101e-01 8.1146248589409552e+01
-1.4639045648154791e-01 8.1146390456476183e+01
ITEM: ATOMS id type xs ys zs c_csym c_peratom fx fy fz
4 1 0.000389235 0.0247468 0.0254201 0.0616447 -3.36216 -0.118935 0.0934857 -0.130037
8 1 0.049859 0.0247368 0.025102 0.0242749 -3.3531 0.0499067 0.0984733 -0.00176974
83 1 0.0249867 0.0501802 0.0251263 0.0114283 -3.3521 0.00757284 -0.0853929 -0.035044
85 1 0.0499671 0.0498102 -0.00017401 0.0221768 -3.36485 0.0312041 0.0583527 0.0502332
1602 1 0.0251424 0.0251308 0.0499627 0.00917485 -3.35756 0.00550981 -0.0210724 0.0594869
1605 1 0.0502153 -0.00010101 0.050219 0.0185944 -3.35676 -0.0205904 0.0215502 -0.0168801
1681 1 8.97251e-05 0.0501692 0.0501045 0.0132149 -3.35791 -0.0478562 -0.0500102 -0.0202342
1685 1 0.0500971 0.0500792 0.0499405 0.0118735 -3.35655 -0.0404998 -0.0233415 0.00751829
12 1 0.100075 0.0250771 0.0249599 0.0185406 -3.35705 -0.00407124 0.0150344 0.00946996
87 1 0.0746374 0.0499145 0.0248841 0.0275712 -3.3532 0.0180693 -8.0906e-05 -0.0283179
1606 1 0.0749287 0.0251685 0.0499028 0.0136049 -3.36011 0.0301597 -0.0163417 0.0452541
1689 1 0.100115 0.0498359 0.049919 0.0192907 -3.36186 0.0138787 0.0540727 0.0232643
13 1 0.149661 4.54638e-05 0.000368149 0.0451144 -3.3609 0.109184 -0.00551929 -0.116094
16 1 0.150112 0.0249604 0.024883 0.0208952 -3.35858 0.0067299 0.0904091 0.0375199
91 1 0.125104 0.0501245 0.0248711 0.0174526 -3.36752 -0.0105781 0.0104664 -0.0355198
1610 1 0.125494 0.0253211 0.0498971 0.0409192 -3.35737 -0.0467572 0.0110727 0.0102179
1613 1 0.150134 0.00038906 0.0498501 0.0245897 -3.36209 0.00461766 -0.106128 0.0586075
1693 1 0.150414 0.0506699 0.0500698 0.053242 -3.35849 -0.0756498 -0.12613 -0.0212003
14 1 0.175265 0.0248057 0.000284341 0.0289992 -3.3598 -0.128737 -0.0134229 -0.0605929
15 1 0.175201 -8.32168e-05 0.0250906 0.0157735 -3.35312 -0.00389453 0.0234937 -0.0357983
20 1 0.199789 0.0251931 0.0249684 0.029498 -3.3514 0.0887807 -0.0850096 0.0172197
95 1 0.175149 0.050423 0.0251289 0.0257193 -3.35171 -0.048646 -0.0562998 -0.0249704
1614 1 0.175175 0.0252672 0.05003 0.00790128 -3.36368 -0.0348078 -0.0537976 0.00154752
1617 1 0.20001 -0.000256832 0.0497037 0.0234937 -3.35958 0.0185823 0.0609718 0.0407711
1697 1 0.199997 0.0498543 0.0501985 0.0332833 -3.3478 0.0457146 0.115222 -0.0618628
19 1 0.22474 -2.46474e-05 0.0245599 0.0208482 -3.36707 0.0845687 0.0107528 0.065112
24 1 0.249819 0.0250825 0.0246597 0.019095 -3.36182 0.009187 -0.0426967 0.00336347
99 1 0.225204 0.0500404 0.0249261 0.0226619 -3.35975 -0.0408576 0.0228829 0.0334011
1618 1 0.224827 0.0254088 0.049611 0.0441174 -3.35713 0.038941 -0.130461 0.0526506
1621 1 0.249703 0.00036593 0.0496675 0.0300272 -3.35947 -0.0170451 -0.0760131 0.0537239
1701 1 0.249809 0.0499591 0.0505917 0.0774216 -3.35056 0.0756481 -0.0144122 -0.177357
22 1 0.275168 0.0251629 -0.000369762 0.0421565 -3.36047 -0.0419305 -0.0993572 0.0825666
23 1 0.274704 -9.48184e-05 0.0251243 0.0341505 -3.34965 0.0671401 0.0750227 -0.100626
28 1 0.30025 0.0245786 0.02505 0.0338671 -3.35708 -0.0163911 0.0665129 -0.023173
103 1 0.274995 0.0495835 0.0249005 0.0275543 -3.3652 0.00887775 0.0795417 0.0358778
105 1 0.300413 0.0495812 0.000295687 0.0642974 -3.36014 -0.0584484 0.0362468 -0.117759
1622 1 0.274875 0.0251364 0.0496052 0.0370968 -3.35837 0.0102802 0.0132821 0.0775501
1705 1 0.300343 0.0498372 0.0499792 0.0161901 -3.35211 -0.0708005 -0.00787192 -0.0639129
26 1 0.32555 0.0247732 -0.000445364 0.0590743 -3.35518 -0.10831 0.0274491 0.0841876
27 1 0.325241 -0.000152289 0.0249559 0.0130674 -3.36811 0.0243674 -0.0280496 0.0332034
29 1 0.350241 -0.000134201 -2.62893e-05 0.0106568 -3.35321 0.0278534 -0.00285161 0.00634653
32 1 0.350106 0.0252927 0.0249432 0.0165494 -3.3569 0.0594054 -0.0668589 -0.0212177
107 1 0.325096 0.0498409 0.0247649 0.0129177 -3.35878 0.0383531 0.0451142 0.0404992
109 1 0.350045 0.0500827 -6.48156e-05 0.011319 -3.35725 -0.0017309 0.0318701 -0.0270583
1626 1 0.32543 0.0250125 0.0498539 0.0282897 -3.35731 -0.0759671 -0.0674453 0.013611
1709 1 0.349909 0.0501692 0.0499887 0.0191406 -3.36109 0.0687121 0.013167 0.017851
33 1 0.399915 0.000128726 -0.000117635 0.0114337 -3.36663 -0.00093382 0.0596673 -0.0425132
36 1 0.400107 0.025273 0.0249122 0.0117385 -3.35594 -0.10149 -0.0491985 -0.0894757
111 1 0.375263 0.0502143 0.02495 0.00550203 -3.36897 0.00027589 -0.025906 -0.0190545
1630 1 0.374999 0.0253282 0.0502302 0.0407206 -3.35944 0.0297 -0.0176304 -0.109912
1633 1 0.399693 0.000145238 0.0496145 0.0411693 -3.36097 0.0967726 -0.0543377 0.0756677
1713 1 0.400585 0.0500617 0.0498824 0.0404415 -3.35777 -0.0920124 0.0806286 0.0399933
34 1 0.425039 0.025147 -0.000400914 0.0185291 -3.35925 -0.0189239 -0.110225 0.0310253
40 1 0.449909 0.0247425 0.0247898 0.0150045 -3.35824 0.0216533 0.0959835 0.0427979
115 1 0.425364 0.0500829 0.0246735 0.0205133 -3.35127 0.0081504 0.0127594 0.0357933
117 1 0.450199 0.0498206 -0.000497845 0.0272841 -3.34912 -0.0162321 0.0234157 0.12757
1634 1 0.424618 0.0250863 0.0494643 0.0695406 -3.35177 0.161974 -0.0287524 0.179518
1637 1 0.449712 0.000145192 0.0501386 0.0217848 -3.3633 0.0026219 -0.00258241 0.0262244
1717 1 0.449656 0.0501449 0.0499765 0.0335834 -3.36304 0.0585662 -0.0851566 -0.0140542
38 1 0.474773 0.0249032 2.79314e-05 0.0145774 -3.35835 0.0694424 -0.038246 0.0321605
39 1 0.474744 -0.000411825 0.0251622 0.0223968 -3.34584 0.061812 0.123964 -0.00414494
44 1 0.500136 0.0245229 0.0250677 0.0300788 -3.36272 -0.0706605 0.0574181 -0.0240421
119 1 0.474967 0.0499589 0.0251137 0.0233818 -3.36517 -0.0634339 0.00557862 -0.0501611
123 1 0.524982 0.0502174 0.0249128 0.0246806 -3.3501 -0.0673068 -0.0686473 0.0284688
1638 1 0.47486 0.0249172 0.0497641 0.0171515 -3.36276 -0.0224212 -0.0135869 0.069133
1642 1 0.524869 0.0246554 0.0497819 0.016321 -3.36128 -0.0241173 0.0305973 0.0692619
1721 1 0.499811 0.0500996 0.0497331 0.0153815 -3.36014 0.0489478 -0.0281727 0.00944873
46 1 0.574852 0.0252119 0.000290488 0.038951 -3.36169 -0.0314597 -0.111262 -0.0826343
47 1 0.575015 -0.000145956 0.0249193 0.011968 -3.36618 -0.0897526 0.0226373 0.0760353
48 1 0.549595 0.0247805 0.0249793 0.0251752 -3.35382 0.136836 -0.0171249 0.0435021
125 1 0.549864 0.0499456 0.000314175 0.0194076 -3.34994 0.0395878 0.0607569 -0.0590701
127 1 0.574792 0.050125 0.0248182 0.0193636 -3.35927 -0.0152593 -0.0456908 0.126405
1645 1 0.550073 -0.000271683 0.0501518 0.00901288 -3.36077 0.00646568 0.0307798 -0.0318113
1646 1 0.574834 0.0248989 0.0500375 0.0083878 -3.37394 0.0277379 0.0192865 -0.0433993
1725 1 0.549604 0.0498719 0.0498949 0.0195065 -3.3642 0.0979227 0.0366329 -0.0108227
50 1 0.625155 0.0247595 0.000237072 0.0201308 -3.35977 -0.0443719 0.0382951 -0.0769039
52 1 0.60005 0.0248011 0.0250029 0.0247404 -3.34265 -0.12134 0.0465256 0.022512
129 1 0.599782 0.0496957 9.83999e-05 0.0184042 -3.3634 0.076042 0.0798931 -0.0441021
131 1 0.624623 0.0499192 0.0250899 0.0254832 -3.35251 0.130904 0.0723148 -0.073941
1649 1 0.600302 -0.000292373 0.0499698 0.0374201 -3.35545 -0.118976 0.0634011 -0.0110236
1650 1 0.624562 0.0255205 0.0498587 0.0652559 -3.34868 0.160334 -0.139945 0.0467214
1729 1 0.59994 0.0500724 0.0496828 0.0263094 -3.35153 -0.116206 0.00882717 0.114761
56 1 0.649979 0.0251693 0.0251495 0.0151664 -3.35782 0.00381592 -0.0301631 -0.0485841
135 1 0.674954 0.0499037 0.0252419 0.0231096 -3.35986 0.0260775 0.0240093 -0.0882035
1654 1 0.675035 0.0250109 0.0501135 0.00764316 -3.35306 0.0278624 0.0437743 -0.00689527
1733 1 0.649984 0.0501777 0.0499557 0.0108945 -3.35717 -0.0321272 -0.0165564 0.0308471
58 1 0.725015 0.0252364 0.000107081 0.00525667 -3.36618 -0.0283221 -0.00926587 -0.00476227
60 1 0.700087 0.0250482 0.0249671 0.0116059 -3.3666 -0.0154639 -0.0325009 0.0140248
137 1 0.699647 0.050332 5.04436e-05 0.0181392 -3.35747 0.0682716 -0.0608178 0.0388044
139 1 0.724753 0.0502014 0.0251189 0.0137439 -3.35277 0.0415812 -0.0491711 -0.0119451
1658 1 0.725037 0.024826 0.0501892 0.0167811 -3.35544 -0.0483638 0.0358285 -0.065004
1737 1 0.700217 0.0498642 0.0501525 0.0222813 -3.35726 -0.0703658 0.0315571 -0.0318272
62 1 0.774694 0.0252763 -0.000120125 0.040344 -3.35524 0.00667617 -0.0632279 0.104982
64 1 0.749783 0.0251399 0.0254096 0.0211733 -3.36103 0.0535182 -0.0299899 -0.0785745
143 1 0.775152 0.0502202 0.0251857 0.0235538 -3.36294 -0.0220636 -0.0287786 -0.0597157
1662 1 0.775049 0.025328 0.050139 0.017612 -3.36213 0.0194028 -0.104039 -0.0253858
1741 1 0.749962 0.0501329 0.049988 0.00717709 -3.34726 -0.061842 0.00721547 -0.028811
66 1 0.825192 0.0249951 0.000214802 0.026465 -3.35093 -0.051594 0.0229128 -0.0383027
68 1 0.800036 0.0253936 0.0247555 0.0486749 -3.35658 -0.044816 -0.0616846 0.0996953
147 1 0.824766 0.0501966 0.0251674 0.0141904 -3.35818 0.0514459 0.035352 -0.0508427
1666 1 0.824796 0.0252037 0.05003 0.0165234 -3.35113 0.0497651 -0.0742941 0.0058034
1745 1 0.799957 0.0500588 0.0505598 0.0442832 -3.35022 -0.0280404 0.0205579 -0.100117
69 1 0.849758 0.0001014 5.6648e-05 0.0154344 -3.35277 0.12897 0.0347452 -0.00674938
71 1 0.874886 0.000167331 0.0248 0.0123352 -3.36247 0.00584209 0.0668296 0.0337845
72 1 0.849645 0.0252283 0.0251957 0.0244479 -3.36526 0.139591 0.0018176 -0.00271606
149 1 0.849988 0.0500718 5.14869e-06 0.00719962 -3.36187 -0.0160087 0.0427813 0.0440805
151 1 0.875187 0.0502905 0.0250916 0.0155344 -3.36987 -0.070936 -0.082977 0.0402979
1670 1 0.875179 0.0253302 0.0502165 0.0371774 -3.36076 -0.0495183 -0.0675661 -0.133232
1749 1 0.849782 0.0501346 0.0501085 0.00684679 -3.36896 0.0665451 0.0459076 -0.00919528
74 1 0.924937 0.0250884 0.000449417 0.0367444 -3.35138 0.0410426 -0.0347576 -0.0716748
76 1 0.900175 0.0248338 0.0249779 0.015107 -3.35656 -0.0887121 0.0612736 0.0274503
155 1 0.925085 0.0499107 0.0251478 0.00947619 -3.3598 0.0481136 -0.0176892 0.0440855
1674 1 0.925248 0.0246561 0.049955 0.0201225 -3.35797 -0.00787765 0.054524 0.019426
1753 1 0.90019 0.0497046 0.0502499 0.029003 -3.35657 -0.0410282 0.0454483 -0.0781103
81 1 0.999885 0.0501711 -2.61343e-05 0.0192662 -3.36799 0.0411975 -0.110154 0.0176514
78 1 0.975103 0.0248428 -8.43776e-05 0.0119111 -3.36029 0.0471506 0.0687842 0.066125
80 1 0.950263 0.0245828 0.0251462 0.0236208 -3.3627 -0.0544195 0.0745692 -0.0523665
159 1 0.97515 0.0499432 0.0251352 0.00638841 -3.3705 -0.0622864 -0.00788573 0.0110584
1678 1 0.974754 0.0249429 0.0497407 0.0513873 -3.3511 0.0916159 0.0278455 0.0647769
1757 1 0.950139 0.04996 0.0503951 0.0309569 -3.36145 -0.0249646 0.0257682 -0.139865
84 1 -2.00537e-05 0.0748006 0.0251222 0.0185256 -3.34761 -0.0227645 0.0547942 0.0157733
88 1 0.0497071 0.0749947 0.0246588 0.0322979 -3.36655 0.12573 0.0610224 0.0754926
163 1 0.0248262 0.100034 0.0245329 0.0527003 -3.35092 0.118184 0.00624073 0.142662
165 1 0.0501452 0.100308 -0.000371897 0.0389039 -3.35261 -0.0836775 -0.0665676 0.0741184
1682 1 0.0250641 0.0750528 0.0498124 0.00928078 -3.3527 0.0595074 0.0347346 0.0284905
1761 1 0.000588326 0.100089 0.0499368 0.0720732 -3.35839 -0.152329 -0.0170306 0.0577503
1765 1 0.0502057 0.100205 0.0499256 0.0329122 -3.37011 -0.0586744 -0.13332 -0.0278568
92 1 0.099406 0.0749005 0.0245654 0.0556121 -3.35288 0.112253 0.04256 0.0764347
167 1 0.0747738 0.100244 0.0248723 0.0220231 -3.35589 0.0149763 -0.108159 0.0620052
1686 1 0.0752179 0.0743883 0.049813 0.0827703 -3.35774 -0.0587636 0.184106 0.0171695
1769 1 0.0999302 0.100026 0.0498095 0.0192041 -3.36035 -0.0174866 -0.03326 0.0683247
96 1 0.150101 0.0752755 0.0249215 0.00959949 -3.35978 0.00467536 -0.0135885 -0.0674161
171 1 0.124772 0.0997869 0.0249982 0.0293567 -3.36291 0.0387013 0.0817096 -0.0847563
173 1 0.149622 0.100015 -0.000279246 0.0336768 -3.35464 0.0715444 -0.0392096 0.0985249
1690 1 0.124743 0.0751297 0.0495016 0.0570466 -3.36065 0.02222 -0.0482671 0.139463
1773 1 0.150269 0.0999083 0.0496757 0.0264539 -3.35385 -0.0202349 0.0486082 0.0486459
94 1 0.175223 0.0749173 -0.000247492 0.0192575 -3.37103 0.0197032 0.0207428 0.0635124
100 1 0.200144 0.0750822 0.025061 0.00786737 -3.37207 0.0194859 0.0214578 -0.0266924
175 1 0.175156 0.100422 0.0246378 0.0307779 -3.35885 -0.00495164 -0.144902 0.0151231
177 1 0.200184 0.100021 -0.000398041 0.0231116 -3.36477 -0.0151986 -0.0799003 0.0784675
1694 1 0.175475 0.0753584 0.0500242 0.0243244 -3.35337 -0.0522941 0.00654693 -0.0178826
1777 1 0.200066 0.100294 0.0499785 0.0100587 -3.35924 0.0556529 -0.048933 -0.030047
104 1 0.250221 0.0751953 0.0252636 0.0473194 -3.34838 -0.0466532 -0.147859 -0.0362546
179 1 0.225337 0.0998956 0.0250699 0.0185747 -3.35684 -0.090944 0.0268974 0.02313
181 1 0.249503 0.0998159 -5.3216e-05 0.0533412 -3.35124 0.166167 -0.00162782 -0.018596
1698 1 0.225318 0.0749745 0.0502179 0.0130086 -3.36791 -0.0788752 0.0556947 -0.0156281
1781 1 0.250404 0.0999691 0.0502044 0.0312295 -3.35772 -0.102519 0.0219751 -0.0507038
108 1 0.29999 0.0747148 0.024911 0.00834591 -3.35625 0.00381754 -0.0199657 0.00259354
183 1 0.274863 0.0992717 0.0247387 0.0611363 -3.36186 0.0418568 0.19816 0.04223
1702 1 0.274877 0.0743653 0.0501147 0.0505791 -3.35012 0.0584651 0.0482173 -0.0376374
1785 1 0.299848 0.0991538 0.0498284 0.0643797 -3.35686 -0.0127796 0.206144 -0.0306285
106 1 0.3249 0.0750335 3.60372e-05 0.0229905 -3.35661 0.072851 -0.0753242 -0.0211092
112 1 0.35056 0.0751323 0.024747 0.0523069 -3.35754 -0.128547 -0.0558968 0.0488346
187 1 0.325195 0.0996745 0.0250145 0.0278736 -3.36112 -0.0779785 0.0378769 -0.031039
1706 1 0.325022 0.0747324 0.0500527 0.0127203 -3.3582 0.0810893 0.0100389 -0.0607851
1789 1 0.350016 0.0998669 0.0498702 0.00646954 -3.35684 -0.0580474 0.037318 -0.0247467
116 1 0.400444 0.0748718 0.0248852 0.0189417 -3.36232 -0.0676918 0.0520907 0.0296646
191 1 0.375157 0.100135 0.0247056 0.0151958 -3.35046 -0.0311903 -0.0615766 0.0554367
193 1 0.40006 0.0999879 -2.63638e-05 0.00923754 -3.35732 0.0419992 0.0333452 -0.0132847
1710 1 0.375031 0.0750185 0.0500838 0.0193182 -3.36251 0.0770485 -0.0279523 -0.0558472
1793 1 0.400132 0.0998356 0.0498065 0.0189172 -3.36208 -0.0409551 0.0411155 0.0308735
120 1 0.449949 0.0753105 0.024631 0.0276699 -3.36339 0.0340125 -0.0706498 0.0283713
195 1 0.425182 0.100187 0.0250019 0.0148192 -3.36255 -0.0361672 -0.0387774 -0.0280813
1714 1 0.425443 0.0752291 0.0502976 0.0429573 -3.35579 -0.0910471 -0.0465377 -0.102347
1797 1 0.450217 0.100123 0.0501302 0.0169292 -3.35181 -0.0609639 0.0259302 -0.0253815
122 1 0.524738 0.0748593 -0.000248206 0.0266529 -3.36569 0.0598064 0.071129 0.0127098
124 1 0.499945 0.0751521 0.024607 0.0161435 -3.35846 -0.0530188 -0.0190037 0.00750433
199 1 0.4751 0.0999742 0.0248373 0.0118229 -3.36096 -0.0492402 0.0458656 -0.0504289
201 1 0.499875 0.100452 -0.00038723 0.0393436 -3.35756 0.0340617 -0.134777 0.0553734
203 1 0.525009 0.100149 0.0246524 0.0116434 -3.34889 -0.0455188 -0.00788278 -0.0313636
1718 1 0.474609 0.07518 0.0498193 0.0354258 -3.35127 0.120189 -0.0563916 0.00569442
1722 1 0.524844 0.0752944 0.0494445 0.0431187 -3.35148 -0.00852857 -0.0790246 0.141014
1801 1 0.499882 0.0998617 0.0496038 0.0238622 -3.36342 0.0387659 0.0365417 0.104709
126 1 0.575036 0.0749786 2.77955e-05 0.00859659 -3.3554 -0.0292172 -0.0212819 0.0447101
128 1 0.549841 0.0752448 0.025032 0.0156804 -3.35735 0.058863 -0.0439236 -0.0650077
205 1 0.550036 0.0999995 -7.89187e-05 0.00573257 -3.36732 -0.0328539 -0.0193691 0.0272793
207 1 0.575192 0.100099 0.0250753 0.0209533 -3.36054 -0.0806933 0.00335737 0.0370683
1726 1 0.574883 0.0751965 0.0500487 0.0121827 -3.36037 -0.0185084 -0.0526021 -0.0369685
1805 1 0.549557 0.0998526 0.0498079 0.0416223 -3.35635 0.109421 0.0823602 0.0536267
130 1 0.625017 0.0751646 0.000429149 0.0329769 -3.36696 -0.0753485 -0.116883 -0.0764243
132 1 0.599904 0.074845 0.0253164 0.0201997 -3.35679 0.00593003 0.0776566 -0.0727638
211 1 0.624782 0.100155 0.0249397 0.0205447 -3.36108 0.00233471 -0.0413136 0.080412
1730 1 0.624756 0.0751357 0.0504084 0.03673 -3.36051 0.0632688 0.01831 -0.104631
1809 1 0.600084 0.100228 0.0501623 0.0174673 -3.35851 -0.0408086 -0.038416 -0.0451013
134 1 0.674717 0.0751567 -0.000254626 0.0218368 -3.36287 0.00655932 0.0132988 0.119555
136 1 0.649917 0.0748527 0.0252195 0.0264676 -3.36326 -0.0414874 0.0237015 -0.0838722
215 1 0.674852 0.100183 0.0245883 0.0275894 -3.35518 0.0616015 -0.0464483 0.0210935
1734 1 0.675043 0.0752276 0.0494072 0.0468965 -3.35415 0.0216849 -0.0315953 0.124812
1813 1 0.650022 0.100282 0.0496992 0.0277162 -3.35452 -0.0608065 -0.0923894 0.0703557
140 1 0.700011 0.0750635 0.0251597 0.0200092 -3.35355 -0.063377 0.0196947 -0.100837
219 1 0.724839 0.100403 0.0251426 0.0235708 -3.35719 0.0773535 -0.0254575 -0.0539507
1738 1 0.724894 0.0751639 0.0498531 0.015678 -3.36159 0.0266873 4.24445e-05 0.0899841
1817 1 0.700083 0.100223 0.0494759 0.046371 -3.35736 -0.0421316 -0.00501965 0.155586
142 1 0.774916 0.0751203 -0.000338723 0.0392512 -3.35285 0.0322311 -0.0908704 0.142017
144 1 0.749841 0.0752653 0.0252698 0.0212575 -3.35661 0.0383714 0.00975753 -0.037872
221 1 0.750207 0.100138 0.000126439 0.0209627 -3.35831 -0.120657 -0.0206204 -0.0441484
223 1 0.774961 0.0999129 0.0249316 0.0131576 -3.35949 -0.0318953 0.0157367 0.0596371
1742 1 0.774958 0.0748967 0.0499957 0.0271594 -3.35983 0.0653152 0.111998 0.042411
1821 1 0.750342 0.100212 0.0503662 0.0478277 -3.35611 -0.0725646 -0.0205131 -0.13563
146 1 0.825023 0.0751078 -8.83519e-05 0.00632418 -3.37127 -0.0394536 -0.0096948 0.00626716
148 1 0.799834 0.074959 0.0250432 0.0122468 -3.36619 0.0393428 0.00594402 -0.0423131
225 1 0.799619 0.100062 0.000207357 0.0269895 -3.35298 0.11314 -0.0728808 -0.0616102
227 1 0.82497 0.100124 0.0249898 0.0192945 -3.35018 -0.0641757 -0.0580501 0.015394
1746 1 0.82466 0.0749014 0.0501402 0.0215128 -3.35792 0.070714 0.0253136 -0.000300364
1825 1 0.800182 0.100198 0.0497993 0.0271087 -3.35688 -0.0499589 -0.079798 0.0589769
150 1 0.874858 0.07525 0.000391879 0.0338161 -3.35924 -0.0242703 -0.0785057 -0.153093
152 1 0.849968 0.0753709 0.0250401 0.0206002 -3.3589 -0.045129 -0.134566 0.0471851
229 1 0.849785 0.10021 0.000322238 0.0286725 -3.35556 0.0336689 -0.0536212 -0.106591
231 1 0.874893 0.100015 0.0253492 0.0176663 -3.34457 -0.0112503 0.0443882 -0.0670391
1750 1 0.875101 0.0751522 0.050202 0.0190655 -3.35342 -0.0931406 -0.0990255 -0.0194653
1829 1 0.84968 0.0997242 0.0502959 0.0426375 -3.36194 0.037115 0.121989 -0.00554976
154 1 0.925128 0.0744424 4.03311e-05 0.0498857 -3.356 0.00571121 0.146331 -0.00760403
156 1 0.899879 0.0750741 0.0250382 0.0144735 -3.35344 0.0796493 -0.0319316 0.0244131
233 1 0.899772 0.0995624 -0.000105075 0.0347933 -3.3608 0.0612586 0.090182 0.0667761
235 1 0.924966 0.100213 0.0246234 0.0375447 -3.36068 -0.0532869 -0.0802821 0.0871846
1754 1 0.924815 0.0747874 0.0499404 0.0132777 -3.36364 0.0374291 0.0918705 -0.00464456
1833 1 0.899626 0.0998364 0.0498588 0.0280416 -3.3636 0.151309 0.0799416 0.0930737
160 1 0.949739 0.0751963 0.0249963 0.0316608 -3.3651 0.0886355 -0.101111 0.0651973
239 1 0.975185 0.100042 0.0252345 0.0160032 -3.35469 0.0137606 -0.0175974 -0.0275628
1758 1 0.975081 0.0754147 0.0501796 0.0338266 -3.36764 -0.0257315 -0.0765138 -0.0364926
1837 1 0.949756 0.100288 0.0496584 0.0493194 -3.35735 -0.00672631 -0.100624 0.0734563
162 1 0.0248524 0.124841 -0.00012902 0.0277086 -3.35997 0.0388841 0.103092 0.0491199
168 1 0.049879 0.124981 0.0249768 0.0133458 -3.34881 -0.0262457 -0.0286805 -0.0206323
243 1 0.0250858 0.149637 0.0253689 0.0477903 -3.35767 -0.0844536 0.11236 -0.0977238
245 1 0.0500783 0.150096 6.49508e-06 0.015511 -3.35606 -0.0670177 0.0222402 0.0336714
1762 1 0.0251141 0.124847 0.050106 0.0208339 -3.35767 -0.0580518 0.0322311 0.025739
1841 1 5.38611e-05 0.150253 0.0506031 0.0530237 -3.35887 -0.0127183 -0.130834 -0.0860334
1845 1 0.0498338 0.150152 0.0495683 0.0595144 -3.34883 0.0321876 -0.0554173 0.142425
172 1 0.0999115 0.124847 0.0250306 0.00864687 -3.36139 0.0664223 0.0451928 -0.00534152
247 1 0.0747828 0.149665 0.0248011 0.0327705 -3.35484 0.0831148 0.105631 0.0609392
249 1 0.10023 0.14987 3.49602e-05 0.0167364 -3.35481 -0.0807749 0.0233709 -0.0211866
1766 1 0.0749407 0.125056 0.0499902 0.0143903 -3.35691 0.0212909 -0.0130808 0.0580602
1849 1 0.100158 0.149585 0.0503052 0.0277509 -3.3629 0.0197225 0.00603726 -0.0588981
170 1 0.124986 0.12522 -0.000210055 0.0190719 -3.35878 -0.0182098 -0.095022 0.0463265
176 1 0.150098 0.125089 0.0245943 0.0165432 -3.35883 -0.0651141 -0.032563 0.0389893
251 1 0.124993 0.149947 0.0249289 0.0069011 -3.3618 -0.00215486 -0.0031147 -0.00714725
1770 1 0.125326 0.124725 0.0499746 0.020717 -3.36445 -0.074373 0.0431942 0.0126508
1853 1 0.149818 0.150039 0.0495298 0.0505289 -3.35536 0.154486 -0.063307 0.107459
180 1 0.200307 0.124916 0.024904 0.0148493 -3.35725 0.0385285 0.0258923 -0.0502105
255 1 0.175369 0.149838 0.0246127 0.028444 -3.35759 -0.0533756 0.06115 0.0722108
257 1 0.200206 0.149845 -0.000199942 0.00510254 -3.36997 0.027058 0.0423736 -0.0151332
1774 1 0.17498 0.125156 0.0496345 0.0155573 -3.35819 -0.0208361 0.00761816 0.0795582
1857 1 0.200012 0.149945 0.0497818 0.0155109 -3.35896 0.0208142 0.0379809 -0.0210235
184 1 0.249879 0.12516 0.0246377 0.0291293 -3.35376 0.0605026 -0.112808 0.0228188
259 1 0.225422 0.150238 0.0246542 0.0285275 -3.35666 -0.0965122 -0.0407766 -0.0204311
1778 1 0.225233 0.125133 0.0496812 0.0198401 -3.35745 -0.0341204 -0.0555505 0.0514204
1861 1 0.249785 0.149735 0.0499669 0.0367477 -3.35758 0.0738314 0.121675 0.0210043
182 1 0.274997 0.124741 -0.000148115 0.0159997 -3.3597 0.00678547 0.0230563 0.0372715
188 1 0.299846 0.124713 0.0250219 0.0178886 -3.36945 -0.0172955 -0.00744538 -0.0655532
263 1 0.274491 0.149922 0.0247966 0.0414357 -3.35402 0.129337 0.0264984 -0.0101819
1782 1 0.274846 0.125087 0.0496732 0.0323772 -3.36425 0.0455977 -0.0780593 0.0236224
1865 1 0.299757 0.150199 0.0497654 0.0260447 -3.35552 0.0290516 -0.0773536 0.00036792
192 1 0.349947 0.1247 0.0245094 0.0280362 -3.35948 -0.0302767 0.0418255 0.0951213
267 1 0.325105 0.149821 0.024778 0.0171802 -3.35619 -0.0928574 -0.00716613 0.0107115
269 1 0.349559 0.149547 -0.000262594 0.0528148 -3.35379 0.120534 0.0756585 -0.0144435
1786 1 0.324564 0.12494 0.0495158 0.0364166 -3.36505 0.0437613 -0.063941 0.0827718
1869 1 0.349558 0.149888 0.0500478 0.0281442 -3.35928 0.0802685 -0.015257 -0.0608143
196 1 0.399632 0.124659 0.0248861 0.047342 -3.35348 0.108352 0.0768417 0.0332628
271 1 0.374705 0.14997 0.0248034 0.018726 -3.35511 0.00882583 -0.0423555 0.061207
1790 1 0.374702 0.125136 0.0498693 0.0240103 -3.36218 0.0453005 -0.0265708 -0.012874
1873 1 0.399995 0.149734 0.0498928 0.0126205 -3.36263 -0.0721768 0.0227262 0.00918753
194 1 0.425235 0.125208 -0.000188811 0.0371968 -3.35436 -0.0968289 -0.0986091 0.017474
200 1 0.449782 0.124971 0.0252207 0.0279296 -3.35932 0.107166 0.0179717 -0.0611069
275 1 0.424833 0.149967 0.0248078 0.0190596 -3.35339 0.0283051 -0.0334065 0.109789
277 1 0.449797 0.14975 -6.75066e-06 0.0154701 -3.35348 0.129999 0.000980798 -0.0247837
1794 1 0.424952 0.125171 0.0499399 0.0156348 -3.36277 0.0125197 -0.0442864 0.0210636
1877 1 0.450323 0.150043 0.0500844 0.0316497 -3.36059 -0.118398 -0.0255553 -0.0150602
202 1 0.524834 0.124901 -0.000359082 0.0164326 -3.3557 0.0510174 0.0140408 0.0109434
204 1 0.500218 0.125208 0.0249739 0.0233914 -3.35582 -0.123468 -0.0153645 -0.0280362
279 1 0.475041 0.150014 0.025102 0.00976923 -3.36865 0.023801 -0.0373331 -0.00343649
281 1 0.500072 0.150124 -0.000476179 0.0336698 -3.3494 -0.0569783 -0.0924715 0.112869
283 1 0.524921 0.149633 0.0247265 0.0447304 -3.35724 0.0470947 0.14854 0.043639
1798 1 0.475061 0.124907 0.0500343 0.00865117 -3.36019 0.0343398 0.0398955 -0.0151489
1802 1 0.524801 0.125211 0.0496569 0.0278704 -3.35255 0.0660714 -0.0750772 0.119136
1881 1 0.500513 0.150256 0.0503459 0.0720748 -3.35459 -0.140287 -0.0332469 -0.110921
206 1 0.574877 0.125235 0.000296175 0.0224569 -3.35219 -0.00618321 -0.055564 -0.0568322
208 1 0.549915 0.125054 0.025095 0.0109692 -3.36106 0.0356447 -0.00527586 -0.0107445
285 1 0.549979 0.149952 -2.68983e-06 0.00795273 -3.36129 -0.0408262 0.00978706 -0.0392887
287 1 0.574898 0.150066 0.0248559 0.0138896 -3.35703 0.0297533 -0.0149964 0.113881
1806 1 0.574884 0.125003 0.0502682 0.0232537 -3.36553 0.0429071 0.0304771 -0.0768529
1885 1 0.550145 0.15029 0.0503242 0.0459716 -3.35696 -0.0352422 -0.0475773 -0.136907
212 1 0.59995 0.12537 0.0250423 0.0231846 -3.3563 -0.0301623 -0.043741 0.062502
289 1 0.600162 0.150096 -0.000259533 0.0483566 -3.34825 -0.0770315 0.0233248 0.0763161
291 1 0.625195 0.149848 0.0251283 0.0210425 -3.35537 -0.032965 0.0277782 0.0242824
1810 1 0.624758 0.124939 0.0503272 0.0337433 -3.35554 0.067402 0.0645314 -0.104838
1889 1 0.600061 0.150012 0.0502048 0.0102914 -3.36934 -0.0668526 0.00681407 -0.028112
214 1 0.674789 0.124837 -0.000228722 0.016414 -3.36251 0.0481799 0.0780734 0.0722516
216 1 0.650124 0.124679 0.0249914 0.0431699 -3.35209 -0.0669652 0.139201 -0.00833336
293 1 0.649813 0.150107 0.000152716 0.0107819 -3.36608 0.0559281 0.00587363 -0.0382821
295 1 0.674952 0.1502 0.0250906 0.0110609 -3.36497 0.0467586 -0.0280911 -0.0859053
1814 1 0.674616 0.125049 0.0501095 0.0332809 -3.35455 0.121 0.0402095 -0.0120289
1893 1 0.650214 0.150147 0.0499557 0.0298063 -3.35694 -0.0813457 -0.0519817 0.0624849
220 1 0.699854 0.125327 0.025167 0.0299437 -3.35886 -0.0270086 -0.0185425 -0.0856417
299 1 0.724946 0.149977 0.0248703 0.0111554 -3.35666 -0.0504952 0.0699391 -0.0142642
1818 1 0.725013 0.125172 0.0501233 0.0192244 -3.35218 -0.023017 -0.0695809 -0.0128331
1897 1 0.699935 0.149972 0.0501706 0.00815899 -3.36666 -0.0339882 0.0622424 -0.0125849
222 1 0.775001 0.125148 -0.000115567 0.0140808 -3.34719 -0.0367082 -0.0313712 0.0092818
224 1 0.749893 0.124999 0.0246488 0.0282696 -3.36495 0.0297279 -0.0214285 0.0985176
303 1 0.774988 0.149832 0.0252499 0.040746 -3.35933 -0.0871115 0.087904 -0.0565422
1822 1 0.775254 0.124823 0.0500973 0.0307138 -3.35337 -0.105833 0.0636588 -0.024656
1901 1 0.749609 0.149631 0.0496602 0.0580077 -3.3571 0.118954 0.0804143 0.06921
226 1 0.8243 0.124944 0.000287013 0.0724841 -3.35183 0.161908 -0.020823 -0.064163
228 1 0.799566 0.125068 0.0248644 0.0212213 -3.34421 0.0727105 -0.0146691 0.0359731
307 1 0.824834 0.15005 0.0248873 0.0180685 -3.36151 -0.0207938 -0.0166434 0.0233558
1826 1 0.824809 0.125079 0.0496846 0.0268158 -3.36402 0.0380057 0.00768429 0.121241
1905 1 0.799541 0.149997 0.0496289 0.0384554 -3.3601 0.0927724 0.0546107 0.10458
230 1 0.87483 0.124933 9.60526e-06 0.0190814 -3.36101 0.0432049 -0.0180681 0.0525213
232 1 0.84992 0.124827 0.0252168 0.0236491 -3.35773 -0.0362291 0.0666267 -0.016745
309 1 0.849452 0.149595 -0.000419714 0.0814846 -3.34964 0.148134 -0.0154105 0.12917
311 1 0.874499 0.149684 0.0251372 0.0440083 -3.35982 0.0836548 0.0703034 -0.0569043
1830 1 0.875058 0.125302 0.0498883 0.0461721 -3.35691 -0.099266 -0.0904305 0.0946072
1909 1 0.849536 0.150164 0.0503649 0.0568234 -3.36141 0.0601327 -0.0326799 -0.098524
234 1 0.924898 0.124828 -5.94257e-05 0.00695585 -3.35715 0.00568859 0.018903 0.0244782
236 1 0.899939 0.12485 0.0250567 0.00776127 -3.35605 0.00109321 0.0345362 -0.048381
313 1 0.899779 0.149959 5.67665e-05 0.0168416 -3.36605 0.0383037 -0.00129042 0.0655661
315 1 0.924987 0.14986 0.0250445 0.00762035 -3.36484 -0.0386543 -0.0164637 -0.0135581
1834 1 0.924931 0.125057 0.0501173 0.0102275 -3.36349 -0.0451012 -0.0399068 -0.0336723
1913 1 0.89995 0.149873 0.0501268 0.00723288 -3.359 0.0193225 0.0376242 -0.014244
164 1 1.00009 0.125151 0.025288 0.0218376 -3.36419 -0.0398715 -9.55612e-05 -0.0491621
238 1 0.974785 0.124865 0.000149893 0.0196002 -3.36192 0.146722 0.0254318 -0.0218402
240 1 0.950079 0.124964 0.0247109 0.034458 -3.34563 -0.0554879 0.0220001 0.128779
317 1 0.95012 0.149981 0.000221646 0.0274054 -3.35704 -0.0852525 -0.0358436 -0.0566222
319 1 0.974799 0.149591 0.0256415 0.0576235 -3.35295 0.060145 0.0435151 -0.0820013
1838 1 0.975058 0.124666 0.0502884 0.0324989 -3.36169 -0.0043443 0.0676726 0.00253534
1917 1 0.95004 0.149863 0.0504293 0.0325771 -3.35767 -0.0295092 -0.0323727 -0.0595223
242 1 0.0246831 0.175031 8.77895e-05 0.0140432 -3.35614 0.110118 0.0153764 0.0494873
248 1 0.0495285 0.175 0.0250297 0.0343028 -3.36268 0.0907893 0.0493564 -0.00288723
323 1 0.0244743 0.19996 0.0252213 0.0184005 -3.36807 0.0505436 0.0359776 0.00727391
325 1 0.0500426 0.200132 9.64949e-05 0.00910337 -3.36461 -0.0628945 -0.0405009 0.0103093
1842 1 0.0247629 0.175255 0.0504677 0.0423181 -3.35504 0.0219488 -0.0417443 -0.119788
1921 1 -0.000406212 0.200144 0.0503969 0.0255185 -3.35704 0.0733707 0.0144453 -0.0641207
1925 1 0.0498398 0.199931 0.0500806 0.0087663 -3.3617 0.0471974 -0.0224022 -0.00685787
246 1 0.0751564 0.175153 0.000345157 0.0283462 -3.35869 -0.0717625 -0.0587759 -0.0381106
252 1 0.0998263 0.174729 0.0252179 0.0372809 -3.36406 0.0731838 0.000633273 -0.0223735
327 1 0.0749461 0.200176 0.0252127 0.0262515 -3.35854 -0.0424728 -0.0772841 -0.00992459
329 1 0.100174 0.199722 4.98606e-05 0.0254035 -3.35143 0.00573255 0.0857757 -0.0354964
1846 1 0.0751257 0.174584 0.0500588 0.0245858 -3.3597 -0.0491932 0.0886942 -0.0560664
1929 1 0.100142 0.199793 0.049661 0.0230598 -3.36759 0.0249099 -0.0127556 0.102967
250 1 0.124993 0.17482 -0.000215699 0.0187318 -3.35886 0.00604192 0.0445446 0.0550793
256 1 0.150398 0.175076 0.0251959 0.0612942 -3.35368 -0.10177 -0.0568624 -0.144837
331 1 0.125155 0.199856 0.024379 0.0525825 -3.35993 -0.0276445 -0.0244529 0.174255
333 1 0.149727 0.200049 -0.000263246 0.0371948 -3.35641 0.120811 -0.0144795 0.0120088
1850 1 0.125517 0.174715 0.0498509 0.0355895 -3.3567 -0.146492 0.112274 -0.00681875
1933 1 0.150235 0.200258 0.0498251 0.018055 -3.3519 -0.0908086 -0.0358166 0.0513691
254 1 0.175034 0.174664 2.56994e-05 0.0393316 -3.36805 0.0622512 0.136115 -0.0583202
260 1 0.200258 0.175163 0.0251346 0.0380312 -3.35487 -0.0433047 -0.0533951 -0.161823
335 1 0.174796 0.199827 0.0249689 0.0284035 -3.35433 0.103115 0.0811046 -0.0830473
337 1 0.199631 0.200078 -0.0002088 0.0363876 -3.37296 0.075261 -0.0809978 0.0211947