ITEM: TIMESTEP
11500
ITEM: NUMBER OF ATOMS
32000
ITEM: BOX BOUNDS pp pp pp
4.6542094980993083e+00 7.6345790501895536e+01
-1.9474263700297811e+00 8.2947426370024402e+01
-1.9442535234369842e+00 8.2944253523432607e+01
ITEM: ATOMS id type xs ys zs c_csym c_peratom fx fy fz
8 1 0.0500813 0.0247927 0.024978 0.0133452 -3.30406 0.0573809 0.0338334 -0.0217898
1602 1 0.0251457 0.0248265 0.0498894 0.012582 -3.31027 -0.00940078 0.0547901 0.0458371
83 1 0.0252514 0.0498552 0.0249805 0.0126101 -3.31407 -0.0398989 0.10323 -0.058098
1685 1 0.0505201 0.0497894 0.0495371 0.0444157 -3.30891 -0.0728363 0.0235351 0.150655
12 1 0.0996958 0.0246652 0.0248995 0.0386261 -3.31666 0.102652 0.0539036 0.0643681
6 1 0.0751462 0.0246354 -3.16458e-05 0.0204522 -3.3036 -0.0783798 0.107599 0.00743047
87 1 0.0752992 0.049825 0.0249064 0.00648938 -3.30879 -0.0360394 0.0210592 -0.0316961
1609 1 0.100177 0.000384332 0.0502238 0.040688 -3.2961 -0.065428 -0.14044 -0.0381885
16 1 0.150276 0.0250158 0.0252145 0.0181857 -3.31642 -0.0654302 0.0208297 -0.051028
15 1 0.175272 0.000179006 0.0250541 0.0200292 -3.29992 -0.0697126 -0.115121 -0.00303201
11 1 0.124903 1.14024e-05 0.0250648 0.0166151 -3.31756 0.065708 0.00848082 -0.0473093
91 1 0.12514 0.0501083 0.0251349 0.0231177 -3.30371 -0.0312411 -0.152489 -0.0564591
95 1 0.174772 0.0503234 0.0249329 0.0449819 -3.31082 0.100935 -0.0949257 0.0211746
1614 1 0.175495 0.0247606 0.0498947 0.0530956 -3.29957 -0.167407 0.127042 0.0558975
1693 1 0.14999 0.0502054 0.0497958 0.0143232 -3.30352 0.0179953 -0.107793 0.0475399
1613 1 0.150113 8.52318e-05 0.049884 0.00753124 -3.30664 0.0290313 -0.0306524 0.0361338
20 1 0.200175 0.0249647 0.0252276 0.0238591 -3.30923 0.0925334 0.0638203 -0.0717893
19 1 0.225087 -0.000379261 0.0250136 0.0295515 -3.30732 -0.00660994 0.0689129 -0.0275045
1618 1 0.225417 0.0252808 0.0499297 0.0508617 -3.30748 -0.0720985 -0.0945503 -0.0192046
1617 1 0.200057 0.000130179 0.0499869 0.00965805 -3.30305 0.0986747 -0.0433436 0.0443539
24 1 0.249705 0.0248851 0.024538 0.0520738 -3.30852 0.00854118 -0.0285823 0.080066
23 1 0.274935 -9.84179e-05 0.025126 0.0168752 -3.3072 0.0351094 0.087071 0.0152869
22 1 0.275389 0.0246144 7.05366e-06 0.0271781 -3.29559 -0.0842754 -0.0185826 0.0328357
1622 1 0.274648 0.0250528 0.0501631 0.0263862 -3.31806 0.0192386 -0.0651482 -0.127279
28 1 0.300213 0.0248039 0.0248363 0.0286991 -3.30903 -0.0718535 -0.0165032 0.0984111
26 1 0.325019 0.0245521 3.88016e-05 0.0109042 -3.3099 0.00477913 0.065502 -0.0359173
32 1 0.350163 0.0248051 0.0247928 0.0280667 -3.30021 -0.140306 0.0293863 0.112401
25 1 0.299929 -0.000609886 0.00017463 0.0437704 -3.30399 0.0717024 0.0623174 -0.015504
27 1 0.325281 -0.000407549 0.0249798 0.0304595 -3.30272 -0.080644 0.0721298 0.111478
29 1 0.349545 -0.000527016 8.26112e-05 0.0392747 -3.29514 0.0859624 0.111531 -0.105078
1625 1 0.299731 -4.11639e-05 0.0504655 0.0394522 -3.32197 0.0307771 -0.0159552 -0.134102
109 1 0.350028 0.0500124 -0.000268567 0.0411241 -3.3068 -0.141655 -0.0162044 0.0693934
36 1 0.399569 0.0251986 0.0248478 0.0205133 -3.30574 0.0455024 -0.0815201 -0.059802
111 1 0.374608 0.0498625 0.0249997 0.0357111 -3.29395 0.0619003 0.093031 -0.100263
1713 1 0.39996 0.0501754 0.049394 0.0475989 -3.31408 0.0140212 0.098814 0.16364
31 1 0.374611 -1.28445e-05 0.0249226 0.0099604 -3.30606 -0.00475861 -0.0272119 0.0789988
1630 1 0.3753 0.0251318 0.0498787 0.025557 -3.29677 -0.0778963 -0.0894487 0.0224219
113 1 0.40005 0.0497418 -0.00010872 0.0246322 -3.30964 -0.104 0.0793479 -0.0038451
115 1 0.424876 0.0501198 0.0246064 0.0199723 -3.30792 0.0744437 0.0281414 0.0568862
40 1 0.449949 0.0251114 0.0248232 0.00867715 -3.30175 -0.0140339 -0.045508 0.0453807
117 1 0.450067 0.0497308 -0.000344843 0.042929 -3.31041 0.00887479 0.0539211 0.104037
37 1 0.449784 0.000132585 -0.000145339 0.0139237 -3.29654 -0.0132569 -0.0248923 0.0275492
44 1 0.500171 0.0249758 0.0250374 0.0138882 -3.3173 -0.0234333 -0.0266483 -0.00842224
121 1 0.500311 0.049671 -0.000206155 0.0398698 -3.3046 -0.151447 0.0174932 0.19523
39 1 0.474821 1.33529e-05 0.0248547 0.0114286 -3.31091 0.0154335 0.0207425 0.0434279
1642 1 0.52538 0.0246412 0.0497494 0.0350803 -3.31373 -0.039769 0.0718975 -0.00604083
48 1 0.550784 0.0245086 0.0245771 0.0789785 -3.30198 -0.178018 0.103927 0.110513
1646 1 0.575303 0.0248416 0.0498283 0.0184582 -3.31208 -0.0152972 0.026212 0.00860455
46 1 0.57537 0.0249272 -9.79732e-05 0.0257497 -3.30038 -0.0334591 -0.00326906 -0.115406
52 1 0.600352 0.0250091 0.0247803 0.0189167 -3.30334 -0.0271966 0.0233808 0.0746536
50 1 0.625 0.0248745 0.000121533 0.0397924 -3.31177 0.0577474 0.0916778 -0.0711282
56 1 0.650047 0.0251599 0.0251702 0.0262347 -3.30772 -0.0279139 -0.011166 -0.0895036
60 1 0.700146 0.0253857 0.0254739 0.0595563 -3.30784 -0.0359924 -0.135122 -0.081728
135 1 0.675202 0.0500021 0.0251867 0.0218252 -3.30807 0.0159005 0.0384467 -0.0113675
137 1 0.700193 0.0502298 0.000119579 0.0116838 -3.32422 -0.108884 -0.0132527 -0.0688355
133 1 0.650599 0.0501522 2.4382e-05 0.0293536 -3.30714 0.0155857 -0.0738744 -0.0488841
1654 1 0.674671 0.0253782 0.0500098 0.0506857 -3.29811 0.0568804 -0.0559407 0.0278096
53 1 0.650023 0.000331866 -0.000149282 0.0386201 -3.3023 0.00195883 -0.118149 0.0982861
64 1 0.749799 0.025105 0.0251947 0.0116025 -3.31405 0.0644133 -0.0338226 -0.0543907
1658 1 0.725045 0.024854 0.0503383 0.0162788 -3.30575 0.0513399 -0.0495485 0.0394875
139 1 0.725075 0.0499652 0.0249726 0.0123579 -3.28908 -0.0452956 0.0383132 0.036993
68 1 0.799593 0.0252664 0.0251464 0.0229517 -3.30735 0.115016 -0.0776785 -0.0138221
143 1 0.7752 0.0500804 0.0250963 0.0157918 -3.29793 -0.162965 -0.00517644 -0.0253399
1662 1 0.77483 0.0250528 0.0501463 0.0145905 -3.31234 0.0471345 -0.017322 0.0687647
62 1 0.775157 0.025119 -1.45553e-05 0.015836 -3.31475 -0.0864642 0.0217068 -0.0269095
72 1 0.849833 0.025128 0.025277 0.0144637 -3.31475 0.0285583 -0.053274 -0.0117439
147 1 0.824923 0.0500194 0.0250809 0.00571293 -3.30236 -0.0317406 -0.0149175 0.0349664
149 1 0.849749 0.0500307 0.000373432 0.0204757 -3.29636 -0.00939939 0.0432853 -0.0768029
66 1 0.824833 0.0251943 -0.000139862 0.0178132 -3.31419 -0.0749394 -0.0422214 0.0856391
76 1 0.899847 0.0250795 0.025096 0.0109618 -3.31634 0.0258999 -0.00452673 -0.0450642
1753 1 0.899991 0.0502908 0.0501919 0.0254329 -3.3015 -0.034303 -0.0846355 -0.0440549
155 1 0.924959 0.0500618 0.0250515 0.00712335 -3.31105 -0.0100758 -0.042445 -0.0182871
4 1 1.00027 0.0252296 0.0250015 0.0212558 -3.30795 -0.0349847 -0.0777934 0.0306326
1681 1 1.00014 0.0502453 0.0500333 0.0184761 -3.30867 0.0154002 -0.0179152 -0.07367
80 1 0.950168 0.0251415 0.0254735 0.0326169 -3.31332 -0.0810497 -0.0454516 -0.11738
1678 1 0.974961 0.0252421 0.0498862 0.0177924 -3.31335 0.0229799 -0.0478899 0.0497308
159 1 0.975099 0.0501031 0.0252095 0.0140936 -3.30333 0.0183132 0.0219524 -0.0270227
78 1 0.975149 0.0248375 0.000412632 0.0269177 -3.30625 -0.054014 0.0370123 -0.0365506
88 1 0.0503449 0.0749814 0.0248789 0.0155204 -3.30509 -0.0703142 -0.0422199 -0.0416828
84 1 -3.9388e-05 0.0751853 0.0249219 0.00865645 -3.31269 -0.0398912 -0.0851005 0.0598151
165 1 0.0499907 0.0996622 3.72268e-05 0.0138385 -3.3014 -0.0494967 0.0405449 -0.0614236
1682 1 0.0253973 0.0749556 0.0498039 0.0190774 -3.31732 0.00291869 -0.00193961 0.031961
1761 1 0.000425432 0.100147 0.050164 0.0338775 -3.30531 -0.143128 -0.0853594 -0.024613
92 1 0.100387 0.0750188 0.0245599 0.0463493 -3.30011 -0.107246 -0.0342259 0.0212087
86 1 0.0750428 0.0746277 -0.000400295 0.0264338 -3.3084 0.0128438 0.0199512 0.0366216
1686 1 0.0751438 0.0749546 0.0496641 0.0137717 -3.31131 -0.0141183 0.0119864 0.0632718
167 1 0.0752492 0.0997239 0.0242783 0.0802384 -3.30509 0.00539933 0.0544802 0.215045
96 1 0.149549 0.0751199 0.024958 0.0285244 -3.2979 0.135503 0.00800904 -0.0640992
90 1 0.125308 0.0747374 -0.000366284 0.0382562 -3.30977 0.0077546 0.0428523 0.00108547
1694 1 0.174659 0.0750414 0.0498162 0.0116035 -3.30527 0.0517087 0.0391955 -0.0557685
1690 1 0.124598 0.074937 0.049821 0.0471268 -3.30042 0.106748 0.114237 0.085306
99 1 0.224686 0.0500715 0.0250373 0.0295826 -3.3133 0.0572592 -0.0689344 -0.0813976
100 1 0.199894 0.0749166 0.0245514 0.0247116 -3.30241 -0.0222911 0.052685 0.085466
1698 1 0.224815 0.0748442 0.0497308 0.00958088 -3.29883 0.00517691 0.0871123 0.021407
1697 1 0.199806 0.0500699 0.0500444 0.0183058 -3.30106 -0.0106925 0.000715813 -0.076034
103 1 0.274508 0.0496937 0.0252392 0.0382832 -3.31298 0.0849072 0.0533267 -0.104572
104 1 0.249521 0.0750241 0.0249956 0.0292906 -3.30103 0.116733 -0.049228 -0.0190673
1701 1 0.249893 0.0502366 0.0500972 0.0230394 -3.28788 0.0486273 -0.0479735 -0.0517099
101 1 0.250133 0.0494238 -6.60562e-05 0.039422 -3.30939 -0.0175505 0.139879 0.0089066
107 1 0.324918 0.0498179 0.0253034 0.0294654 -3.31583 0.0703617 -0.0203072 -0.0412283
108 1 0.299816 0.0748817 0.0252625 0.0219711 -3.2968 -0.0513691 -0.0357691 0.0103958
112 1 0.349808 0.0746953 0.0248157 0.0194097 -3.30925 0.0218745 0.0573001 0.052985
106 1 0.324328 0.0745083 0.00044525 0.112728 -3.30363 0.0664501 0.122405 -0.11675
1705 1 0.299508 0.0500475 0.049818 0.0362702 -3.30723 0.0474714 -0.0436145 0.0943169
105 1 0.300058 0.049627 -8.04637e-05 0.0183845 -3.3069 -0.0507647 0.00501373 0.0818499
189 1 0.349794 0.0999095 6.63231e-05 0.0099829 -3.31099 -0.0502058 -0.0603878 0.00436602
191 1 0.374891 0.0998959 0.0247657 0.00965664 -3.3005 -0.0414916 -0.0142055 0.0549878
116 1 0.39983 0.0751282 0.0248416 0.0106446 -3.31045 0.0456917 -0.0403003 0.00932941
110 1 0.375063 0.0747699 -0.000181186 0.0258842 -3.31455 -0.0325029 0.0471991 -0.00410618
193 1 0.399839 0.0999513 -6.635e-05 0.00777625 -3.31756 0.0383692 0.0191747 -0.046381
120 1 0.450245 0.0751626 0.0250132 0.0207788 -3.28983 -0.0605382 -0.0568286 -0.109829
195 1 0.425267 0.100033 0.0248359 0.023489 -3.31784 -0.0422685 0.0832714 0.0568051
1797 1 0.45034 0.100438 0.0502257 0.0457221 -3.30386 -0.0455962 -0.0074417 -0.0684997
123 1 0.525169 0.0497987 0.024857 0.00814661 -3.32236 0.0431647 -0.00780439 0.0152657
119 1 0.474707 0.0498783 0.0253988 0.0693212 -3.30526 0.17321 -0.00804268 -0.240046
124 1 0.499683 0.0748649 0.024887 0.0182791 -3.30996 0.00584786 -0.0282854 0.0316358
118 1 0.474939 0.0746883 -0.000111887 0.014961 -3.31991 -0.00653237 0.0429251 0.0200571
122 1 0.525052 0.0747519 0.000365303 0.0501581 -3.31038 -0.0215327 0.00850037 -0.0952528
199 1 0.474908 0.0999041 0.0247964 0.0125134 -3.30967 -0.0291315 0.0879506 -0.0115619
1718 1 0.47448 0.0750293 0.0498813 0.0532657 -3.29423 0.168907 0.045581 0.0857239
1722 1 0.525116 0.0749388 0.0499276 0.0153618 -3.31081 -0.0315293 0.0779636 -0.0445932
127 1 0.57503 0.0497909 0.0249984 0.0174026 -3.31211 0.0298788 0.0405598 0.00885697
128 1 0.550372 0.0750528 0.0248997 0.0370529 -3.30407 -0.0481967 -0.0885597 -0.0328591
1726 1 0.574487 0.0747998 0.0499139 0.0594289 -3.31648 0.185072 0.00686713 0.0756156
1725 1 0.549756 0.0497889 0.0499511 0.0243529 -3.30631 0.0260774 -0.0285736 -0.0347072
1805 1 0.550116 0.100215 0.0496376 0.0516761 -3.30252 -0.0819335 -0.0794556 0.123209
131 1 0.625342 0.0505143 0.0244934 0.0950785 -3.30688 -0.0994548 -0.173071 0.134599
132 1 0.599769 0.0750842 0.0249274 0.0329681 -3.32258 0.0083468 -0.0344382 0.00533919
211 1 0.625434 0.0998354 0.0249304 0.0218407 -3.30906 -0.1223 -0.00168239 0.00457364
130 1 0.625638 0.0749414 4.5486e-05 0.0422458 -3.30274 -0.128508 -0.0153186 -0.0811575
136 1 0.650112 0.0747366 0.0248515 0.0361199 -3.28651 0.107223 0.107068 0.070934
140 1 0.700217 0.0751382 0.0248367 0.021147 -3.29905 -0.00466312 -0.0767231 0.0465737
213 1 0.649792 0.100098 -0.000109931 0.0260884 -3.29167 0.0119932 0.0146899 0.0354428
1813 1 0.650057 0.099863 0.0498323 0.0181242 -3.32268 0.0396146 0.0490025 0.0876483
1817 1 0.700183 0.0998871 0.0498906 0.0223045 -3.30883 -0.0909058 0.0624208 0.0604069
134 1 0.674978 0.0756715 -8.76092e-05 0.0748201 -3.30333 0.052629 -0.177722 0.0295229
217 1 0.700064 0.100005 -0.000176751 0.0150247 -3.29738 0.0300008 0.0511498 0.0813664
144 1 0.749713 0.0747268 0.0251056 0.0339134 -3.3128 0.110786 0.0637574 -0.0110729
1738 1 0.72479 0.0749559 0.0502121 0.0146806 -3.30668 0.0394791 -0.0249372 0.0169673
138 1 0.724997 0.0753734 7.75299e-05 0.0421253 -3.30158 0.0623003 -0.0622336 -0.0499838
148 1 0.79989 0.0748927 0.0251793 0.0110654 -3.29046 0.0551277 0.00284411 -0.0572156
1745 1 0.79988 0.0500888 0.0500576 0.00919017 -3.31176 0.0445605 -0.0647623 0.0781187
223 1 0.775364 0.0995908 0.0251225 0.0322925 -3.31002 -0.155803 0.0934728 -0.0198338
1742 1 0.774893 0.0748783 0.0502362 0.012066 -3.3091 -0.048503 -0.00690961 -0.0315147
1825 1 0.799854 0.0998027 0.0499004 0.0165235 -3.30501 0.0593408 0.0797384 0.0287183
151 1 0.874866 0.049851 0.0251798 0.0115065 -3.29911 0.0318403 0.00998481 0.0222516
152 1 0.850095 0.0748217 0.0250334 0.0117702 -3.30264 -0.0629536 0.0642394 0.0504781
150 1 0.874953 0.0748422 0.000391613 0.017468 -3.30102 -0.0251147 0.0463327 -0.0879602
1829 1 0.850105 0.0998953 0.0503947 0.0325941 -3.31759 0.0271781 0.0185693 -0.130023
231 1 0.87482 0.0998997 0.0250589 0.0121677 -3.32146 0.0774015 0.0194938 0.0545103
227 1 0.824967 0.100054 0.0249054 0.0147942 -3.31934 0.0575611 -0.0225963 0.0915703
1746 1 0.824757 0.0749154 0.0497082 0.0341235 -3.31321 0.11163 -0.00398913 0.0771086
1750 1 0.874955 0.074922 0.0499882 0.0167762 -3.30967 -0.0494706 -0.0159368 0.0646471
156 1 0.899995 0.0748069 0.0251483 0.00704272 -3.30796 -0.00280691 0.0487567 0.00310704
1833 1 0.900071 0.0995576 0.0505042 0.0405704 -3.31451 -0.0292315 0.102631 -0.110293
1754 1 0.925187 0.0747648 0.0502719 0.0235897 -3.29678 0.00798747 0.116111 -0.0385244
154 1 0.925236 0.0750412 0.000252581 0.0257371 -3.31143 -0.0622442 -0.0383278 -0.0570585
233 1 0.900158 0.099651 -3.21488e-05 0.0401827 -3.30767 0.0156602 0.0666879 0.0770829
160 1 0.950098 0.0749549 0.0250633 0.0120994 -3.30295 0.00703293 0.0508051 0.0413402
158 1 0.974604 0.0752686 -0.000132065 0.0271008 -3.29772 0.0341904 -0.0331974 0.043529
1758 1 0.974754 0.075248 0.0502322 0.0294719 -3.31652 0.0416006 0.0160229 -0.0671364
163 1 0.0247637 0.0999405 0.025039 0.0153093 -3.30809 0.0531596 0.012854 -0.0564403
1765 1 0.0501684 0.100242 0.0497576 0.0231727 -3.32344 0.0533821 -0.0747674 0.0320843
168 1 0.0499742 0.124796 0.024996 0.0124295 -3.31256 0.0215022 -0.0174453 -0.0385052
164 1 -0.000134279 0.125089 0.0250911 0.0125858 -3.30487 -0.026949 -0.0307062 -0.0880099
245 1 0.049961 0.14983 -1.25162e-05 0.0117681 -3.30285 0.000382714 -0.0348255 0.0064889
172 1 0.0997795 0.125196 0.0250077 0.0388413 -3.29897 0.0324092 -0.138492 0.0264233
247 1 0.0749451 0.149624 0.0249651 0.0281696 -3.29881 -0.0433343 0.116176 0.00786203
169 1 0.100018 0.0998111 -0.000188162 0.0110646 -3.29979 0.0397747 -0.0542873 -0.0109379
1766 1 0.075207 0.12501 0.0500555 0.0237953 -3.30519 0.0104214 0.0266697 -0.0223949
1769 1 0.0995724 0.0999151 0.0502551 0.0701368 -3.31628 0.0926424 0.0567982 -0.0948467
175 1 0.174711 0.100111 0.0248401 0.0116691 -3.31478 0.0456441 -0.0662462 -0.0255642
171 1 0.125026 0.0997102 0.0250585 0.0452487 -3.30938 -0.0918564 0.179538 -0.0587027
176 1 0.149884 0.125171 0.0244708 0.0367876 -3.30405 -0.024384 -0.0522163 0.100347
1773 1 0.14979 0.100387 0.0497031 0.0250055 -3.30135 -0.00403883 -0.137216 0.0550651
1770 1 0.124819 0.124963 0.0496893 0.0211092 -3.31413 -0.0520285 0.0614112 -0.00714694
180 1 0.199828 0.124834 0.0251292 0.0212821 -3.32241 0.0222278 0.0825484 -0.107759
179 1 0.22471 0.0999214 0.0249498 0.0169329 -3.30102 0.0429426 0.0357146 0.0216031
1778 1 0.225059 0.125216 0.049697 0.0384674 -3.30589 -0.0368869 -0.152294 0.0621328
1777 1 0.199772 0.0996796 0.0499259 0.0273525 -3.31096 -0.0258978 0.111407 -0.059346
183 1 0.274726 0.0998736 0.0248767 0.0224289 -3.305 0.125295 0.0219368 -0.0202075
184 1 0.249856 0.12482 0.024838 0.0250581 -3.30915 0.0767653 0.037022 0.0251621
1861 1 0.250019 0.149719 0.0502242 0.0257007 -3.30509 0.0394292 0.0945467 -0.0372344
1781 1 0.250326 0.100027 0.0497626 0.0413251 -3.31534 -0.128829 0.0271679 0.030779
1782 1 0.275464 0.12514 0.0499581 0.0604814 -3.31016 -0.0957536 -0.0448411 -0.016138
182 1 0.274579 0.125576 -0.000173876 0.0535073 -3.3036 -0.0151371 -0.141411 0.0102982
187 1 0.324731 0.0996856 0.0249944 0.0260738 -3.31197 -0.0356901 0.0955677 -0.0698134
185 1 0.299722 0.100107 -0.000532065 0.0725908 -3.31755 0.0400633 0.0418402 0.165679
188 1 0.299631 0.125065 0.0246523 0.034975 -3.3123 0.0512777 -0.0668152 0.0288311
192 1 0.350089 0.124736 0.0252485 0.045769 -3.31468 -0.0145812 0.0454033 -0.0304041
267 1 0.324911 0.149877 0.0249688 0.0162723 -3.31449 -0.00729 0.0303688 0.0178863
1869 1 0.350172 0.149993 0.04966 0.0242564 -3.31324 -0.0791124 -0.0325092 0.0745404
1865 1 0.299843 0.150402 0.0500196 0.0534587 -3.306 0.0912926 -0.0669003 -0.0431699
1786 1 0.324578 0.124976 0.0499137 0.0279991 -3.31408 -0.00478739 0.0664802 -0.0446009
196 1 0.399585 0.125058 0.0248086 0.0219935 -3.31648 0.0858 -0.0413035 0.0302803
200 1 0.449946 0.125365 0.0247135 0.0277957 -3.32076 0.00466957 -0.0999345 0.0583149
1877 1 0.450268 0.150051 0.0495652 0.0372815 -3.29947 0.0268083 -0.0145752 0.121881
275 1 0.424536 0.150042 0.0251971 0.0549043 -3.31367 0.0785915 0.0497135 -0.0787614
203 1 0.52483 0.0995423 0.0250049 0.0335751 -3.3076 -0.0121705 0.0513104 -0.0302887
204 1 0.500006 0.124895 0.0248283 0.00480726 -3.31021 -0.0209523 -0.00082075 0.0531541
279 1 0.474873 0.150102 0.024746 0.0241325 -3.30949 0.141409 -0.0121842 0.00871249
1798 1 0.475051 0.125124 0.0500321 0.0138525 -3.30767 0.065884 0.00727996 -0.0446682
201 1 0.499893 0.0999923 -0.000218175 0.0265275 -3.2987 0.0592002 -0.10818 0.0769233
202 1 0.525168 0.124522 5.45453e-05 0.0281291 -3.30314 -0.100514 0.0713529 -0.106034
207 1 0.574881 0.100011 0.0249844 0.0242799 -3.30359 0.0596902 -0.0217843 -0.0403268
208 1 0.549597 0.124743 0.02488 0.017584 -3.30011 0.0746473 -0.0172435 0.0723083
206 1 0.574931 0.124265 2.39747e-05 0.0430533 -3.30634 0.0312648 0.125477 0.0493093
285 1 0.549687 0.149583 0.000154164 0.0258768 -3.3058 0.0478892 0.0384342 -0.0534345
212 1 0.599935 0.124714 0.0249634 0.0112753 -3.3014 -0.00979178 -0.00102722 -0.0430846
210 1 0.624856 0.124918 0.000156804 0.0112438 -3.30898 0.0320667 -0.0380861 -0.0248485
209 1 0.600045 0.0993627 -1.55513e-05 0.0404182 -3.30466 0.0848023 0.0996807 0.0528872
215 1 0.67519 0.0996879 0.0251886 0.0479015 -3.30839 -0.033232 0.0556858 -0.0564538
216 1 0.650476 0.124626 0.0249775 0.0533037 -3.31319 -0.0544024 0.10734 0.00862899
220 1 0.699895 0.124833 0.0248609 0.0192583 -3.32389 0.0343538 -0.0251026 0.0226001
214 1 0.67477 0.124729 -7.15601e-05 0.0250876 -3.30229 0.0333229 0.0526577 0.00601717
219 1 0.725312 0.0999736 0.025365 0.0432598 -3.30586 -0.0536665 0.0337142 -0.145464
224 1 0.749935 0.124852 0.0250569 0.0114425 -3.31611 0.0388699 -0.00153887 -0.025762
1821 1 0.749898 0.100076 0.0501543 0.0121739 -3.31906 0.0618342 -0.00834276 0.0292761
1818 1 0.724954 0.125242 0.0503754 0.0532926 -3.30073 -0.0122715 -0.124435 -0.118925
299 1 0.724834 0.149693 0.0249244 0.0203365 -3.31249 0.0765812 0.0783595 0.00532048
218 1 0.725077 0.124736 -0.000383876 0.0341998 -3.30802 0.0598048 -0.00152286 0.0896183
301 1 0.750111 0.149865 -0.000121446 0.0232213 -3.31751 -0.0566514 0.0500071 0.0724975
228 1 0.800051 0.124934 0.0251006 0.00856796 -3.30456 -0.0102619 0.0247688 0.0396088
222 1 0.775261 0.124739 0.000187345 0.031574 -3.30933 -0.0132464 0.0886457 -0.0410576
232 1 0.850121 0.12505 0.0252141 0.0127959 -3.30845 -0.0699224 -0.038433 -0.0321309
230 1 0.875092 0.124832 0.000443296 0.0330003 -3.30471 -0.0168762 -0.00310645 -0.087328
311 1 0.875142 0.150075 0.0250071 0.0139607 -3.3087 0.00326783 -0.0135598 0.0271884
1909 1 0.849938 0.15006 0.0499235 0.0109128 -3.29964 0.0396615 0.000855241 0.0391195
1830 1 0.875197 0.125155 0.0500315 0.0216547 -3.31029 -0.0278115 -0.108335 0.0271351
229 1 0.849866 0.100034 -1.14999e-06 0.00975977 -3.30429 0.000872829 0.0302062 0.0161011
309 1 0.849736 0.149622 0.000266489 0.0491735 -3.31662 0.102141 0.0677662 -0.0444259
235 1 0.924888 0.0997918 0.025375 0.0155757 -3.30806 -0.0359026 0.030488 -0.0744213
236 1 0.900109 0.124948 0.0252866 0.0113659 -3.30801 -0.0469096 -0.0662816 0.0216014
1834 1 0.924962 0.124718 0.0505122 0.031189 -3.30778 0.0127172 0.093416 -0.0400643
234 1 0.924591 0.125067 0.000299791 0.0258824 -3.30363 0.00635586 -0.0822307 -0.10292
315 1 0.924927 0.149698 0.0250799 0.0189416 -3.30656 -0.0436907 0.0853601 0.0287171
237 1 0.949896 0.100345 0.000199274 0.022547 -3.30538 -0.0878992 -0.0614059 -0.0447609
239 1 0.975051 0.100132 0.0251971 0.0133263 -3.31397 -0.0230645 -0.0104064 0.026671
240 1 0.949828 0.125023 0.02492 0.012162 -3.30848 0.0130814 -0.0450255 0.1182
319 1 0.974766 0.149921 0.0246599 0.0252412 -3.31431 -0.0133302 0.0330142 0.09886
243 1 0.0249329 0.149831 0.0247073 0.0187974 -3.31077 0.0404374 0.0248032 0.0747139
248 1 0.0504093 0.174983 0.0251523 0.0346695 -3.30997 -0.0777527 -0.0445714 -0.011195
242 1 0.0246301 0.174615 0.000368411 0.0459353 -3.31076 0.0816822 0.0577285 -0.0731953
252 1 0.100172 0.175219 0.0252096 0.0427581 -3.30356 -0.0230069 -0.106167 -0.0644174
327 1 0.0756489 0.19969 0.0249512 0.05083 -3.30347 -0.184287 0.100124 0.0330516
246 1 0.0749186 0.17456 0.000172183 0.0317327 -3.30111 0.066063 0.089685 -0.0232728
1846 1 0.0750106 0.174811 0.0502234 0.0261592 -3.30351 -0.0673783 0.109781 -0.0416044
1929 1 0.100071 0.20009 0.0499968 0.014811 -3.30112 0.0806182 -0.0495352 0.0133281
255 1 0.174794 0.150119 0.0250635 0.0203503 -3.30522 0.0502355 -0.0625021 -0.0917755
251 1 0.124901 0.150028 0.0246271 0.0192163 -3.31227 0.0216316 0.0530516 0.0585659
256 1 0.15036 0.175222 0.0246661 0.0416302 -3.31358 -0.127848 -0.0240153 0.0792679
254 1 0.174842 0.17503 -0.000131089 0.0168622 -3.31108 0.0854317 -0.0451425 0.00165484
250 1 0.124799 0.174906 3.06356e-05 0.0128308 -3.32535 0.0611936 -0.0133498 -0.0116945
335 1 0.175226 0.200176 0.0249503 0.0156385 -3.29883 -0.0591621 0.00752841 -0.0276468
1850 1 0.124984 0.174901 0.0500656 0.0305377 -3.30317 0.0284462 0.0927955 -0.0570666
1854 1 0.175236 0.174809 0.0501098 0.0297679 -3.29664 0.00097779 0.0562004 -0.0505773
259 1 0.225444 0.150065 0.0249327 0.0420956 -3.30664 -0.0947513 -0.0335453 0.0396239
260 1 0.199774 0.174815 0.0251328 0.0223166 -3.31029 0.0597404 0.00817627 -0.0213663
1857 1 0.199958 0.149651 0.0500061 0.0249907 -3.30577 0.0336223 0.0660991 -0.0260749
257 1 0.200312 0.150004 0.000194543 0.0350118 -3.32768 -0.071468 -0.0143411 -0.0400852
263 1 0.274881 0.150118 0.0248616 0.0117953 -3.31452 -0.0355218 -0.0140321 -0.0111256
264 1 0.250058 0.174868 0.0253066 0.0212072 -3.30173 0.0132945 0.0182026 -0.0681872
343 1 0.274738 0.199966 0.02519 0.0309581 -3.30525 0.0480606 0.0209582 -0.150293
1862 1 0.274742 0.175013 0.0500694 0.0168147 -3.29655 0.0433957 -0.0393781 0.0533268
268 1 0.299835 0.175083 0.0248214 0.0122636 -3.32044 0.0445163 -0.000462239 0.0141616
272 1 0.350036 0.174842 0.0250167 0.0183668 -3.29064 -0.0749179 0.0172676 -0.0568452
1866 1 0.325312 0.175141 0.0497404 0.0398014 -3.30843 -0.068106 -0.0451334 0.0569072
266 1 0.324982 0.174995 -0.000244773 0.0130361 -3.30624 0.0419043 0.0287052 0.0538145
1945 1 0.299955 0.199846 0.0496035 0.0364694 -3.30746 0.0499979 0.00883965 0.132113
273 1 0.400235 0.149688 -0.000208767 0.0517312 -3.30495 -0.0904022 0.170871 0.0317397
271 1 0.374832 0.150084 0.024602 0.0367973 -3.30885 0.10972 -0.0368506 0.0744432
1873 1 0.399795 0.150243 0.0500991 0.0264092 -3.3086 0.00600193 -9.29071e-05 -0.0714301
276 1 0.399964 0.175284 0.0250161 0.0308793 -3.3088 0.0604756 -0.103243 0.0477088
1870 1 0.374668 0.175176 0.0499616 0.0296581 -3.30917 0.0325984 -0.0236745 0.0263833
1953 1 0.399926 0.199769 0.0505953 0.0684326 -3.30926 0.126977 0.0131343 -0.17423
351 1 0.374855 0.199552 0.0250336 0.0529601 -3.30471 0.0510171 0.170299 0.0892394
280 1 0.450335 0.175292 0.025104 0.0304787 -3.30383 -0.0756591 -0.0685214 -0.0514195
274 1 0.425311 0.175143 0.000177184 0.0160296 -3.31688 -0.087971 -0.0663064 -0.00990923
357 1 0.450466 0.199924 9.54928e-06 0.0264694 -3.30233 -0.0815855 0.0246334 0.115245
1957 1 0.450134 0.199925 0.0503449 0.0163207 -3.31167 -0.0154408 0.0167458 -0.0168224
1881 1 0.500035 0.150076 0.0499168 0.0195909 -3.30165 -0.00659867 -0.097046 -0.000839618
283 1 0.524985 0.14973 0.0250008 0.0077179 -3.29722 0.0123712 0.0364805 0.0319494
284 1 0.500429 0.175016 0.0250042 0.0189381 -3.2952 -0.103795 -0.033419 0.0118292
1878 1 0.475243 0.175098 0.0498777 0.0146796 -3.29986 -0.000777056 -0.0305685 0.0542547
1882 1 0.524566 0.174617 0.0501622 0.0446514 -3.29557 0.0923501 0.147713 -0.0150608
287 1 0.574512 0.149725 0.0249245 0.0247104 -3.3107 0.0194322 0.00568677 0.038059
288 1 0.549869 0.175006 0.025113 0.0136839 -3.3087 0.0305079 -0.0147541 0.0663463
286 1 0.574786 0.174764 0.000199777 0.0137594 -3.30971 0.0457953 -0.00461083 0.00783409
291 1 0.625192 0.149822 0.0250879 0.010805 -3.31511 0.0213414 -0.00651205 0.0304584
292 1 0.599743 0.17483 0.0249597 0.0137155 -3.31392 0.0260369 -0.0278391 0.00590696
289 1 0.600041 0.149617 0.000566385 0.0458721 -3.31963 -0.0549471 0.0637935 -0.134399
290 1 0.625324 0.174768 0.000317185 0.0238751 -3.30037 -0.170554 0.0145201 -0.0163437
295 1 0.675037 0.150213 0.0249843 0.0205004 -3.30925 -0.0105811 -0.0871019 0.0109531
296 1 0.650159 0.175047 0.025021 0.00857508 -3.30355 0.00580663 0.00298773 0.0556992
293 1 0.649901 0.149965 8.31066e-05 0.0134152 -3.30209 0.0536683 -0.0822014 0.0427838
300 1 0.699995 0.175092 0.0252488 0.0203839 -3.29554 0.0442373 -0.0574658 -0.0496859
294 1 0.67526 0.174854 0.000160942 0.0188114 -3.31213 0.0412891 0.0263748 -0.00857185
297 1 0.700091 0.149403 0.000241866 0.0646612 -3.29418 -0.04075 0.0806574 -0.0547431
304 1 0.74986 0.175253 0.025209 0.0237688 -3.31052 -0.0542683 -0.0944605 -0.117092
379 1 0.724855 0.200085 0.0255296 0.0453213 -3.29321 0.0405774 0.0131333 -0.0578503
298 1 0.724268 0.174766 -9.80302e-05 0.073197 -3.31421 0.149316 -0.0314728 0.0651481
381 1 0.749472 0.200062 0.00046668 0.0385943 -3.32173 -0.0572191 0.0637501 -0.015664
305 1 0.799812 0.150287 0.000185028 0.0201924 -3.31629 -0.0453105 -0.0344583 -0.0169635
303 1 0.774819 0.150085 0.0249713 0.00934591 -3.31201 -0.0235844 -0.0162464 -0.0171493
308 1 0.800077 0.175008 0.0253462 0.0216407 -3.31655 -0.0718956 0.0588599 -0.0967691
302 1 0.774556 0.175519 5.76403e-05 0.0508527 -3.3125 0.0431321 -0.127725 0.0796107
383 1 0.774812 0.200155 0.0255329 0.0405955 -3.30888 0.0303138 -0.0108756 -0.159347
307 1 0.825017 0.150058 0.0252471 0.00786675 -3.30463 -0.0302602 -0.0096747 -0.0435458
312 1 0.850215 0.175058 0.0250202 0.0125052 -3.31673 -0.0384507 0.00767297 0.00400429
391 1 0.875287 0.199977 0.0253872 0.0351532 -3.30535 -0.0194715 0.0221178 -0.138445
389 1 0.84978 0.199888 0.00013776 0.0176095 -3.31226 0.0376209 0.0164174 0.0317388
1906 1 0.825112 0.175011 0.0501731 0.0109924 -3.30657 0.0432099 0.0430825 -0.0362016
1910 1 0.875318 0.174671 0.0499911 0.0227898 -3.30175 -0.0751073 0.0694982 -0.019508
310 1 0.875095 0.174823 -0.000122117 0.0225949 -3.31177 -0.0405011 0.0584032 0.0897847
313 1 0.899687 0.149983 -5.75139e-05 0.0225878 -3.29314 0.0479314 -0.0293027 0.0515036
316 1 0.900243 0.175042 0.0249956 0.0195118 -3.30047 -0.0935737 -0.0490195 0.0213113
314 1 0.924577 0.174807 0.000392158 0.0319583 -3.29928 0.0322897 0.037292 -0.141338
395 1 0.924793 0.200264 0.0249025 0.0299594 -3.2933 -0.0124327 0.00437206 0.120505
1913 1 0.900109 0.149927 0.0502891 0.012471 -3.30044 0.0745229 -0.0372658 -0.0815224
1914 1 0.924981 0.174812 0.0499834 0.0101492 -3.29874 0.0589425 -0.00112438 0.0669839
393 1 0.899866 0.200276 0.000178103 0.0257936 -3.30187 -0.000251528 -0.049181 0.000506786
244 1 1.00005 0.174845 0.0251083 0.00792043 -3.30657 -0.0582603 0.00145785 0.0085617
320 1 0.949575 0.175176 0.0250365 0.0313331 -3.30042 0.0262875 -0.0947192 0.000426814
318 1 0.974659 0.174608 0.000139978 0.0184494 -3.32454 0.0684795 0.0771396 -0.0261581
1917 1 0.949805 0.149902 0.0499729 0.0141612 -3.31745 0.00786635 -0.0263374 0.0775338
397 1 0.949469 0.199677 0.00053861 0.0590401 -3.31169 0.137943 0.0329435 -0.163277
323 1 0.0253665 0.199699 0.0250575 0.0214932 -3.30623 -0.0661143 0.0190923 0.0145105
328 1 0.0501974 0.22472 0.0252054 0.024051 -3.31545 0.0688723 0.0260785 -0.0532452
322 1 0.0252561 0.224702 0.000198306 0.0106482 -3.3245 -0.00516437 0.0605842 -0.053322
403 1 0.0252661 0.249766 0.0250499 0.0127534 -3.32151 -0.00332057 0.0580054 -0.0535815
321 1 -2.09425e-05 0.199855 0.000399214 0.0174755 -3.31382 0.00345492 -0.0472895 -0.0276906
332 1 0.100055 0.225046 0.0247048 0.0071 -3.29569 -0.00524213 0.0266719 -0.0386222
407 1 0.0752396 0.250146 0.02466 0.0132877 -3.31788 -0.040238 0.0112592 0.0316982
2009 1 0.1 0.2501 0.0496992 0.015906 -3.31379 0.0125437 0.027949 0.0531576
331 1 0.125035 0.200233 0.0247714 0.00746795 -3.31145 0.0282051 -0.0447937 -0.00501255
1933 1 0.150176 0.199773 0.049618 0.0285311 -3.3158 -0.0166861 0.0897191 0.0219589
336 1 0.150027 0.22526 0.0245814 0.014203 -3.30425 0.0743424 -0.0646779 0.0332143
415 1 0.17489 0.250256 0.0248018 0.0220895 -3.30787 0.0721158 -0.0229248 -0.0741902
411 1 0.124997 0.250134 0.0246528 0.0146148 -3.30718 0.0184645 0.0172887 -0.0143372
1930 1 0.125082 0.225228 0.0494832 0.0185799 -3.30918 -0.0284124 -0.0702897 0.0703835
2013 1 0.15031 0.249728 0.0495492 0.0467705 -3.31685 -0.0187612 0.0869198 0.111548
339 1 0.225174 0.199636 0.0250389 0.0476694 -3.31033 -0.019733 0.116166 0.054303
340 1 0.200179 0.225067 0.0243234 0.0581348 -3.31098 0.0344251 0.0220576 0.155247
2017 1 0.20001 0.250244 0.0495783 0.0387396 -3.30384 0.00483672 -0.0771527 0.106141
1941 1 0.250289 0.200005 0.0501746 0.0147939 -3.30121 -0.136326 0.0345589 0.00450844
344 1 0.250087 0.22511 0.0249129 0.00909489 -3.31795 -0.0448735 -0.00584082 0.0521133
423 1 0.275186 0.250129 0.0249576 0.0212965 -3.30448 -0.0145588 -0.125672 -0.0112469
1942 1 0.275302 0.224913 0.0498747 0.0150542 -3.30644 -0.0215274 -0.00010917 0.0426098
347 1 0.325494 0.200102 0.0250993 0.0329479 -3.31455 -0.0714425 -0.0385222 -0.110667