ITEM: TIMESTEP
1750
ITEM: NUMBER OF ATOMS
32000
ITEM: BOX BOUNDS pp pp pp
7.0509698517832953e-01 8.0294903014816512e+01
-2.5445935880048864e-01 8.1254459358795316e+01
-2.5501896769186061e-01 8.1255018967686624e+01
ITEM: ATOMS id type xs ys zs c_csym c_peratom fx fy fz
8 1 0.0498606 0.0253488 0.0245155 0.0479467 -3.36433 -0.00893323 -0.0662403 0.145852
83 1 0.0250449 0.0503802 0.0245508 0.0385277 -3.35546 0.00534524 -0.079154 0.0242589
1602 1 0.0247048 0.025119 0.0496269 0.0240482 -3.35497 0.10165 -0.038828 0.00922402
1605 1 0.0498084 0.00013159 0.0502566 0.0308069 -3.35494 -0.0707508 0.0107181 -0.138388
1685 1 0.0498744 0.0499154 0.050186 0.0147221 -3.35688 0.00403798 -0.0123195 -0.0587553
81 1 5.45541e-05 0.0499109 -0.000333694 0.0155636 -3.36317 -0.0393961 -0.00222909 0.0579254
3 1 0.0249295 0.000158808 0.0246463 0.0200934 -3.36173 0.0209127 0.0046254 0.0898167
1 1 -0.000185433 -9.66011e-05 -3.80082e-05 0.0186737 -3.35786 0.0633954 0.0238066 -0.0604334
12 1 0.0998258 0.024742 0.0252178 0.0131619 -3.36489 0.0243869 0.0543603 -0.0486341
87 1 0.0747891 0.0502117 0.0254197 0.0419379 -3.35697 0.052987 -0.0617353 -0.0695912
1606 1 0.0747658 0.0247263 0.0500122 0.0216787 -3.35583 -0.0103798 0.1181 -0.0273954
1689 1 0.0998641 0.0498299 0.0499753 0.0086117 -3.35022 -0.0436743 -0.0147026 -0.0120603
1609 1 0.0998722 -1.14645e-05 0.050004 0.0169038 -3.35017 -0.0104746 -0.0553427 0.0698779
6 1 0.0750291 0.0253179 1.92947e-05 0.0276531 -3.35706 0.071802 -0.0845261 0.000816247
9 1 0.0997457 -0.000409382 0.000339737 0.0286036 -3.35705 0.0589021 0.116821 -0.0347698
13 1 0.149589 -0.000263307 -1.30942e-05 0.0352734 -3.35099 0.103623 0.0130942 0.0748797
16 1 0.149993 0.0245878 0.0249325 0.0210333 -3.36016 -0.107145 0.0352895 0.0272937
91 1 0.125079 0.0500071 0.025122 0.0131785 -3.35883 0.000491222 -0.118872 0.00491101
1610 1 0.124908 0.024992 0.0501142 0.0192803 -3.36069 0.0279297 -0.0313834 -0.0587843
1693 1 0.150411 0.0500913 0.0499277 0.0640527 -3.35819 -0.167755 -0.0451048 0.0189031
11 1 0.124536 -0.000489719 0.025508 0.0458039 -3.35968 0.104649 0.0668312 -0.117149
93 1 0.150028 0.0497346 9.20196e-05 0.00808396 -3.35499 0.0580519 -0.0172732 -0.0430331
15 1 0.17484 -0.000155534 0.0252665 0.0189318 -3.36003 0.0506101 -0.0375014 -0.0604651
20 1 0.200176 0.0251706 0.0249137 0.0142663 -3.36286 -0.00431359 -0.0780078 -0.01552
95 1 0.174933 0.0497545 0.0251237 0.0186375 -3.35908 0.0463239 0.0945051 -0.108836
1614 1 0.174811 0.0249069 0.049655 0.0275808 -3.34926 0.0458827 -0.0267811 0.107968
1617 1 0.200149 -0.000104839 0.0498809 0.0161616 -3.35877 -0.0124974 0.0548931 -0.00619027
1697 1 0.199821 0.0500337 0.049921 0.00938942 -3.36303 0.0319629 0.0346581 -0.0150131
24 1 0.249981 0.0256106 0.0249826 0.0548657 -3.35911 0.0151214 -0.149353 0.0215743
99 1 0.225029 0.0502827 0.0247567 0.0101476 -3.3589 -0.026161 -0.00577523 0.0228062
1618 1 0.224965 0.0251008 0.0497095 0.0141141 -3.3583 -0.0328468 0.0200055 0.0518399
1621 1 0.249791 0.000166388 0.0500084 0.0123179 -3.36083 0.0425828 -0.0414042 0.0320159
1701 1 0.249967 0.0500971 0.0501867 0.0180644 -3.35448 -0.0419006 0.0287487 -0.0672007
22 1 0.275041 0.0248045 0.000232839 0.0219248 -3.35279 -0.0314849 0.00613127 0.000357751
23 1 0.274613 -5.2461e-05 0.0254524 0.0476659 -3.36253 0.0285548 0.00751617 -0.0842028
28 1 0.299899 0.024956 0.0252323 0.00883306 -3.34977 -0.0161439 0.0371351 -0.00263038
103 1 0.275159 0.0500579 0.0253114 0.0207335 -3.35644 -0.018063 0.041891 -0.028335
1622 1 0.275027 0.0251765 0.0501362 0.00790388 -3.35518 -0.0335894 -0.0204347 0.0288988
1705 1 0.300254 0.0501238 0.0502321 0.0242576 -3.3576 -0.0900786 -0.00795879 0.00397123
1625 1 0.30006 0.000341564 0.0499101 0.0320058 -3.35711 -0.0281862 -0.0857047 0.0948966
26 1 0.324788 0.0249712 0.000191943 0.0105043 -3.35676 0.0934102 -0.0141624 -0.0464982
32 1 0.350174 0.0248287 0.0252234 0.0346108 -3.3547 -0.0494329 0.0803878 -0.12008
107 1 0.324754 0.049852 0.025125 0.0177762 -3.35755 0.0816376 0.0359014 -0.0207969
1626 1 0.325164 0.024991 0.0499668 0.0137819 -3.35357 -0.0191809 0.0376583 0.0773578
1709 1 0.35008 0.0501213 0.0499014 0.0109506 -3.35652 -0.00610363 -0.0834019 0.0121896
36 1 0.400364 0.0248791 0.0247064 0.0282196 -3.35944 -0.0633443 -0.0435156 0.0991601
111 1 0.375371 0.0502113 0.0246559 0.0385172 -3.35151 -0.0683417 -0.0577631 0.116374
1630 1 0.375147 0.0250779 0.0494627 0.0361584 -3.3623 0.0497242 0.0142825 0.122917
1713 1 0.400296 0.0500462 0.0499739 0.0202286 -3.35977 -0.0178907 -0.0395002 -0.0459689
31 1 0.374901 -0.000161685 0.0246795 0.0464452 -3.35669 0.130443 0.0434294 0.0346065
30 1 0.375045 0.0255317 9.92389e-05 0.0629978 -3.35526 -0.0373668 -0.185775 -0.0470367
40 1 0.450081 0.025206 0.025109 0.0246357 -3.36012 0.0107257 0.015972 -0.0589686
115 1 0.424924 0.0496792 0.0250051 0.0304481 -3.36377 0.0397057 0.153808 -0.0151152
1634 1 0.425127 0.0248233 0.0501389 0.015532 -3.35431 -0.0216261 0.00536619 -0.0529724
1717 1 0.449659 0.0501652 0.050134 0.033182 -3.35715 0.12194 -0.019572 -0.0731062
35 1 0.425505 -0.000230755 0.0253557 0.0629028 -3.35438 -0.164532 0.028155 -0.103688
38 1 0.474971 0.0250634 -8.16149e-05 0.00969036 -3.36059 -0.00645385 -0.0137255 0.080777
44 1 0.500306 0.02532 0.0250724 0.0226621 -3.35655 -0.138053 -0.0260459 0.0386232
119 1 0.475038 0.0503813 0.0249353 0.0214158 -3.36539 -0.0104081 -0.101799 0.124004
123 1 0.524855 0.050421 0.0251228 0.0183276 -3.35847 0.0622805 -0.0174839 0.0248173
1638 1 0.474844 0.0249663 0.0498952 0.0153673 -3.36568 0.0653257 0.0516141 0.014805
1642 1 0.52526 0.0253724 0.0499651 0.028261 -3.35079 -0.0811838 -0.0345632 0.0544436
1721 1 0.499988 0.0499811 0.0506037 0.0562597 -3.37233 -0.0110543 0.0740429 -0.121799
42 1 0.525066 0.0251906 0.000223018 0.00437183 -3.35437 0.0371845 -0.0113687 -0.0376316
47 1 0.574874 -0.000310663 0.0250449 0.0472125 -3.36158 0.0587625 0.13545 -0.00250294
48 1 0.550062 0.0249838 0.0251333 0.0156706 -3.35769 -0.00975202 0.0557325 -0.0165633
125 1 0.550005 0.050351 0.000194204 0.011607 -3.36168 -0.0256909 -0.037542 -0.0379544
127 1 0.574829 0.0501228 0.0250575 0.010423 -3.35923 0.0514673 0.0279018 -0.0422908
1646 1 0.574963 0.0254236 0.0501614 0.0230452 -3.35361 -0.0187056 -0.0700506 -0.0276937
1725 1 0.550041 0.0503661 0.049999 0.00580399 -3.35255 -0.0240143 -0.0197407 0.00315586
50 1 0.624933 0.025144 9.64725e-05 0.00600894 -3.35243 0.0664974 -0.0334053 -0.00722109
52 1 0.599832 0.0253469 0.0251409 0.0201942 -3.36769 0.0280349 -0.069782 -0.00988024
131 1 0.625311 0.0502439 0.0253174 0.0458509 -3.3523 -0.0843314 -0.10134 -0.00472828
1650 1 0.625194 0.0247097 0.0500203 0.0261393 -3.3589 -0.0628524 0.0969711 -0.000678815
1729 1 0.600079 0.0501122 0.0500864 0.00664997 -3.36361 0.0051816 -0.0357754 0.0122586
56 1 0.649998 0.0248638 0.0248842 0.0167511 -3.36281 0.0259666 0.0365876 0.0327406
135 1 0.67476 0.0500657 0.0251976 0.0206227 -3.36433 0.0592369 -0.0260257 -0.0475028
1654 1 0.675191 0.0249218 0.0499754 0.0133004 -3.35945 -0.0278231 0.0635413 -0.016859
1733 1 0.650192 0.0498963 0.0500939 0.0107669 -3.35537 -0.0452019 0.0156993 -0.0292529
53 1 0.650164 0.000104329 -0.000105029 0.00698657 -3.3658 -0.0251732 0.0129512 -0.0105278
1653 1 0.650095 -8.32398e-05 0.0502401 0.0162029 -3.36018 0.028592 -0.00664772 -0.0791994
133 1 0.649566 0.0502571 -2.42599e-05 0.0431033 -3.3594 0.13007 -0.0398979 -0.0116491
58 1 0.72529 0.0252979 9.72752e-05 0.0181371 -3.35218 -0.0260613 -0.109125 -0.0109367
60 1 0.70041 0.0254129 0.0249904 0.0381846 -3.35967 -0.0991043 -0.0727389 -0.00543993
139 1 0.724955 0.0503443 0.0249759 0.0130822 -3.35428 0.0341118 -0.000491533 0.0287369
1658 1 0.724924 0.0250517 0.0498201 0.0111467 -3.35966 0.0441428 -0.0410555 -0.00213125
1737 1 0.700174 0.050362 0.0502701 0.0313325 -3.35752 -0.0869459 -0.0525067 -0.0592273
59 1 0.725295 -0.000315188 0.0247153 0.0384556 -3.36383 -0.0433278 0.107728 0.0293556
64 1 0.750131 0.0251401 0.0248616 0.0151376 -3.35513 -0.083353 -0.0479552 0.0701628
143 1 0.774962 0.0500127 0.0247245 0.0118994 -3.35512 0.00570752 0.0249266 0.0783504
1662 1 0.774773 0.0246926 0.0500024 0.0243273 -3.35494 -0.0100257 0.0873343 0.00195147
1741 1 0.750055 0.0501616 0.0500282 0.0116835 -3.36491 -0.000227588 -0.0329843 -0.0399048
63 1 0.774522 -3.87132e-05 0.0247739 0.0292816 -3.35915 0.073365 -0.0897363 0.0288609
61 1 0.750213 -0.000170171 -0.000412888 0.0395339 -3.3548 -0.157577 0.00223981 0.0771327
68 1 0.799768 0.0248588 0.0250938 0.0287517 -3.35121 0.0172946 0.0728807 -0.0674975
147 1 0.824968 0.050171 0.024837 0.0089931 -3.36456 -0.00797632 0.0128118 -0.00294521
1666 1 0.825119 0.0251268 0.049768 0.0188215 -3.34499 -0.0279379 -0.012948 0.0637188
1745 1 0.799852 0.0499072 0.0496636 0.0154743 -3.36504 -0.00255225 0.00936073 0.0631991
1665 1 0.800076 0.000142314 0.0495709 0.0295972 -3.35629 -0.0288731 -0.112435 0.0614025
69 1 0.849672 0.000132134 -1.03464e-06 0.0156897 -3.36 0.0640847 0.0111698 -0.0256418
71 1 0.874964 -0.000181196 0.0247451 0.0233328 -3.36119 -0.00822486 0.0694617 0.0620813
72 1 0.849703 0.0249249 0.024957 0.026544 -3.35622 0.158362 0.0884558 -0.015299
149 1 0.850205 0.05006 -9.19221e-05 0.0192919 -3.3646 -0.0344089 0.00801401 0.0177768
151 1 0.874991 0.0504236 0.0252734 0.0313265 -3.35662 -0.00221154 -0.157277 -0.082406
1670 1 0.874769 0.0248477 0.0503628 0.0240895 -3.36685 0.0111626 0.0321914 -0.0922028
1749 1 0.850109 0.0501316 0.0499722 0.0105877 -3.35399 -0.0182625 -0.0558921 -0.00611813
1669 1 0.849886 0.000118505 0.0497513 0.0227503 -3.35828 0.00389694 -0.109599 0.0207935
70 1 0.875253 0.025143 0.000234759 0.0323745 -3.36277 -0.067924 -0.0278682 0.00973524
74 1 0.924933 0.025257 -3.89606e-05 0.0120122 -3.35325 0.00955859 -0.0343176 0.0656942
76 1 0.899871 0.0252869 0.0253934 0.0257516 -3.36308 -0.0657525 -0.051547 -0.0572932
155 1 0.924652 0.0500528 0.0251439 0.0178326 -3.34852 0.0772664 -0.0038719 -0.0684567
1674 1 0.924718 0.0248057 0.0500439 0.0226765 -3.3543 -0.0128598 0.100128 0.11394
1753 1 0.899718 0.0502951 0.0501876 0.012631 -3.3524 0.021254 -0.0793637 0.0531939
1673 1 0.899722 -0.000281907 0.0501687 0.0148139 -3.35974 0.0279543 0.0320098 -0.0083299
153 1 0.900169 0.0501718 -7.39727e-05 0.0154243 -3.35895 -0.0815597 -0.0369302 0.00299326
73 1 0.900213 0.000215461 4.55378e-05 0.019978 -3.35363 -0.106018 -0.0294853 0.022323
4 1 1.00002 0.0251223 0.0248715 0.00953555 -3.36129 -0.0623904 -0.00720758 -0.0521289
1681 1 1.00032 0.0500939 0.0495458 0.0390429 -3.35181 -0.106027 -0.02732 0.0800295
78 1 0.974607 0.0247507 -8.01182e-05 0.0367853 -3.35837 0.115882 0.110528 0.00803181
80 1 0.949887 0.0250473 0.0251298 0.0136755 -3.35395 0.00115354 0.0699474 -0.0369585
159 1 0.975011 0.0501803 0.0250224 0.0159706 -3.37052 -0.0338399 -0.0456072 -0.0622092
1678 1 0.974573 0.0250159 0.0498905 0.029626 -3.35985 0.0866121 0.00352288 -0.00475474
1757 1 0.949323 0.0503567 0.0498389 0.07039 -3.36071 0.134583 -0.0825198 0.0649722
79 1 0.975037 -8.57163e-05 0.0247669 0.0177899 -3.35355 0.000623118 0.0446897 0.0982514
157 1 0.949743 0.0499915 -6.39902e-05 0.0121174 -3.35705 0.0647576 0.0175076 0.0899532
88 1 0.0499714 0.0750165 0.0252801 0.0182248 -3.35073 0.0217994 -0.0320018 -0.106925
163 1 0.0252406 0.0995831 0.0250311 0.0379044 -3.35636 -0.0311293 0.135058 -0.0151568
1682 1 0.0250764 0.0748194 0.0500516 0.0156264 -3.35053 -0.0498371 0.0531742 0.0151222
1765 1 0.0498717 0.0999357 0.050173 0.010103 -3.36102 0.0847584 0.0135667 0.00831301
92 1 0.100082 0.0749553 0.025318 0.0155365 -3.3505 -0.0336969 -0.0327932 -0.0815246
167 1 0.0748779 0.0996601 0.0248417 0.0360333 -3.35795 0.0584071 0.0907367 0.0938268
1686 1 0.0749322 0.0749929 0.0502549 0.00840184 -3.35752 -0.0216842 0.03233 0.0208105
1769 1 0.100018 0.0998709 0.0501435 0.0103905 -3.36185 -0.0499942 0.0450585 -0.00242503
169 1 0.100201 0.0997328 0.0002074 0.0226744 -3.36078 -0.0302741 0.0268985 -0.0244656
96 1 0.149806 0.074875 0.0248818 0.0140401 -3.34883 0.0447499 -0.0196179 0.0148702
171 1 0.12478 0.0997837 0.0251751 0.0134459 -3.36396 0.04752 0.0930215 -0.0655523
173 1 0.150085 0.0998352 4.84354e-05 0.014227 -3.36796 -0.0852841 0.0693404 -0.0401709
1690 1 0.124966 0.0747105 0.0498346 0.0188853 -3.35265 0.0182021 0.0131178 0.112555
1773 1 0.149697 0.0997642 0.0499028 0.0143155 -3.35054 -0.00694632 0.0462494 0.0455729
100 1 0.200129 0.0752483 0.0248012 0.0196731 -3.35967 -0.0649792 -0.0764628 0.00625314
175 1 0.1746 0.0997702 0.0252292 0.0436859 -3.34926 0.0954755 0.0758863 -0.113857
177 1 0.199789 0.100106 -0.000148441 0.0105341 -3.36015 -0.0163907 0.023253 0.0147734
1694 1 0.175038 0.0752402 0.0497589 0.0280997 -3.34801 -0.0313576 -0.0656397 0.0330105
1777 1 0.19965 0.100191 0.0498368 0.0131255 -3.35729 0.0635973 -0.0150613 0.0297737
104 1 0.249638 0.0751962 0.0250213 0.0158881 -3.35534 0.0690661 -0.0239271 -0.0728289
179 1 0.224694 0.100205 0.0248045 0.00522103 -3.35344 0.0320588 -0.0139969 -0.0349971
1698 1 0.224906 0.0752952 0.0497447 0.0129261 -3.35851 -0.0759695 -0.0443936 0.0708877
1781 1 0.249525 0.100103 0.0495537 0.038933 -3.35653 0.0673761 0.00115933 0.128484
108 1 0.300011 0.075212 0.02484 0.0216301 -3.36472 -0.00664976 0.00512176 0.0472317
183 1 0.274823 0.100114 0.0252066 0.0187896 -3.36486 0.0181719 0.0100608 -0.119298
1702 1 0.274925 0.0751078 0.0499603 0.00614902 -3.36265 -0.00777811 0.00655042 0.00743332
1785 1 0.299812 0.100404 0.0499392 0.0233042 -3.35937 0.0621947 -0.10186 -0.0330503
106 1 0.325057 0.074818 -2.42491e-05 0.0201215 -3.36101 -0.0427501 0.0338822 -0.00510708
112 1 0.34991 0.0752337 0.0252888 0.0376183 -3.36009 -0.0184805 -0.0683666 -0.108761
187 1 0.324989 0.100127 0.0248161 0.0145861 -3.35561 -0.0535604 -0.0459917 0.0786071
1706 1 0.324933 0.0746427 0.0500252 0.0490049 -3.35666 -0.026863 0.168727 -0.0213467
1789 1 0.350021 0.100223 0.0497581 0.0171733 -3.35539 -0.0102203 -0.0662766 0.0284598
116 1 0.399778 0.0751804 0.0249025 0.020107 -3.36096 0.160421 -0.0355573 -0.0018883
191 1 0.374993 0.0998425 0.0248858 0.0411858 -3.35881 -0.0492802 0.141326 0.0267112
1710 1 0.374933 0.0747542 0.0498506 0.0186681 -3.34711 0.0153321 0.0622004 0.0526048
1793 1 0.399649 0.0999572 0.0500913 0.0293661 -3.35909 0.0460955 0.0257463 -0.02573
120 1 0.449999 0.0749359 0.0250339 0.0159872 -3.36106 -0.0567026 -0.00297915 0.00661096
195 1 0.424702 0.100139 0.0248258 0.0278976 -3.36388 0.0388062 -0.0261937 0.0197774
1714 1 0.425111 0.0754544 0.0501045 0.0647554 -3.3594 -0.0723341 -0.117738 -0.0760105
1797 1 0.450053 0.0999746 0.0497435 0.0162353 -3.35812 0.00265959 0.0403999 0.0480282
197 1 0.450153 0.100119 0.000384431 0.0320144 -3.36181 -0.0605029 -0.0615377 -0.0906626
124 1 0.500025 0.0752863 0.0249453 0.0170838 -3.3533 0.0292617 -0.0840534 0.130252
199 1 0.475181 0.0997607 0.0250389 0.0262417 -3.35345 -0.0479809 0.113 0.0429161
203 1 0.52518 0.100159 0.0248451 0.0129837 -3.35223 -0.0370746 0.0060831 0.026324
1718 1 0.475138 0.0752457 0.0505534 0.053651 -3.35489 -0.0266723 -0.10172 -0.162655
1722 1 0.52524 0.0753939 0.0500312 0.0179805 -3.36684 -0.0950222 -0.0556625 0.00860155
1801 1 0.500128 0.100012 0.0498739 0.0167578 -3.35171 -0.0116514 0.0110534 -0.00344333
118 1 0.475094 0.0748913 0.000311499 0.0269424 -3.3518 -0.0510526 0.0309419 -0.153286
126 1 0.574924 0.075371 -0.000263968 0.0281109 -3.35937 0.105341 -0.0899484 0.0628693
128 1 0.550128 0.0752766 0.0248822 0.00587409 -3.35327 -0.0361758 -0.0491883 0.0100687
205 1 0.550116 0.1002 2.42159e-05 0.00483108 -3.35338 0.0045568 0.00582972 -0.0215957
207 1 0.574992 0.0999328 0.0249467 0.0110918 -3.35971 0.0549002 0.0720022 -0.0325551
1726 1 0.574977 0.0751131 0.0500586 0.00410397 -3.35657 -0.0112513 -0.0104947 0.0245647
1805 1 0.550153 0.100272 0.0495842 0.0483316 -3.35535 -0.0516595 -0.0537272 0.140934
130 1 0.624708 0.0747451 0.000154975 0.0278682 -3.34906 0.0658538 0.0899209 -0.0424721
132 1 0.599828 0.0749378 0.025164 0.0132027 -3.36169 -0.0119715 -0.0139588 -0.0476844
211 1 0.624739 0.0997887 0.0252611 0.0188003 -3.35033 0.0408319 0.0605711 -0.0808327
1730 1 0.624979 0.0751334 0.0500017 0.0120705 -3.35335 -0.00328135 -0.0630306 0.0620139
1809 1 0.599794 0.0998932 0.0501543 0.00695847 -3.35245 0.00215872 0.00157193 0.0248875
209 1 0.600247 0.0999631 0.000139 0.0209066 -3.35298 -0.0979923 -0.00407078 0.0375646
134 1 0.675206 0.0748633 0.000115219 0.0255556 -3.36059 -0.0842763 0.00684875 -0.00171897
136 1 0.649822 0.0751189 0.025125 0.0126633 -3.35693 0.0737021 0.00322493 -0.0217469
215 1 0.675129 0.0999251 0.0249024 0.0187881 -3.35448 -0.110141 0.0581451 0.0293098
1734 1 0.674897 0.0751825 0.0499855 0.00666756 -3.35491 -0.0104372 -0.00423254 0.0383375
1813 1 0.649716 0.10023 0.0499518 0.0332077 -3.35641 0.121073 -0.0737112 0.0230113
140 1 0.699763 0.0752381 0.0254373 0.0438901 -3.35271 0.0990522 -0.0621085 -0.123924
219 1 0.7252 0.100271 0.0247207 0.0223868 -3.36151 -0.0574128 -0.0290429 0.0720363
1738 1 0.725076 0.0752402 0.049938 0.00988927 -3.35336 -0.00778335 -0.0184138 -0.0353244
1817 1 0.699924 0.100245 0.0497412 0.0148377 -3.36389 0.0442259 0.0146523 0.0819718
217 1 0.699777 0.0999047 -5.90538e-05 0.0289404 -3.36383 0.08664 0.0630175 -0.00291422
142 1 0.77505 0.0753468 -0.000351781 0.0212668 -3.36303 -0.0561959 -0.0247678 0.0376419
144 1 0.750045 0.0749449 0.024644 0.0226639 -3.36289 0.0291526 0.0399977 0.082869
223 1 0.775187 0.099883 0.0251449 0.0298774 -3.36163 -0.0254833 0.0637899 -0.0493839
1742 1 0.775222 0.0749271 0.0501398 0.0271321 -3.35929 -0.093605 -0.0211477 -0.0498169
1821 1 0.750148 0.100051 0.049846 0.00948566 -3.36036 0.0134723 0.00551473 0.0184397
146 1 0.825066 0.0749714 -0.000233773 0.0190789 -3.36268 0.0249982 0.0730812 0.0620136
148 1 0.79977 0.0750007 0.0245355 0.0341499 -3.35597 0.0958372 0.0104004 0.0851792
227 1 0.825162 0.0998813 0.0250587 0.0109718 -3.36685 -0.0142519 -0.000558393 0.0116663
1746 1 0.825115 0.0749293 0.0498843 0.00612905 -3.35915 -0.039955 0.0140219 -0.059377
1825 1 0.800013 0.0997216 0.0500399 0.0221419 -3.36208 0.0403011 0.117814 -0.033732
150 1 0.875074 0.0750862 -0.000382939 0.0276162 -3.35831 0.0273549 -0.0398318 0.0438785
152 1 0.850457 0.0749675 0.0249221 0.0248189 -3.35222 -0.146713 0.0230685 -0.0085544
231 1 0.87511 0.0997942 0.0248796 0.024151 -3.36085 0.0191452 0.101969 0.066669
1750 1 0.874954 0.0752272 0.0501694 0.00848631 -3.35052 0.0309691 0.00825026 0.0155597
1829 1 0.850334 0.100011 0.0501186 0.0184741 -3.35793 -0.0284292 0.0328171 -0.0257614
154 1 0.924628 0.075047 -0.000526182 0.0491395 -3.35429 0.0703251 -0.0142516 0.149043
156 1 0.900077 0.0748543 0.0250443 0.028841 -3.35434 -0.0605349 0.105788 -0.0557094
233 1 0.899948 0.100151 -2.70186e-05 0.0174623 -3.3467 -0.0701291 -0.0760069 -0.0278098
235 1 0.924814 0.100033 0.0245473 0.0250465 -3.34926 0.0233188 -0.0334684 0.127603
1754 1 0.92463 0.0752363 0.0496095 0.0301181 -3.35301 0.0279786 0.0212399 0.144034
1833 1 0.899911 0.10024 0.0502476 0.0173266 -3.3553 -0.0165912 -0.0350466 -0.0954959
84 1 1.00002 0.075386 0.0249678 0.0344461 -3.34596 -0.0220537 -0.133846 -0.0231499
1761 1 0.999939 0.100131 0.0498975 0.0153822 -3.3588 0.0281819 -0.00440416 0.0589092
160 1 0.949841 0.0751291 0.0249716 0.0104515 -3.3656 0.0113773 -0.0224882 -0.0608516
239 1 0.974975 0.100127 0.0251776 0.0166596 -3.36067 -0.0520382 0.00952349 -0.0402019
1758 1 0.975263 0.0747805 0.0499443 0.0434063 -3.35738 -0.118582 0.0312439 -0.000619989
1837 1 0.949896 0.100002 0.0498312 0.0117319 -3.35875 0.00440704 0.0131128 0.0176534
161 1 1.00003 0.0995917 0.000224588 0.0421157 -3.35462 0.00955226 0.148797 -0.0787492
162 1 0.0251535 0.125004 -3.58983e-05 0.0132897 -3.35566 -0.148007 -0.0310441 0.0408223
168 1 0.0500856 0.124915 0.0248827 0.0107091 -3.34811 0.0139655 -0.0503275 0.0442737
243 1 0.0254528 0.149658 0.0252763 0.0503494 -3.35941 -0.121015 0.0864218 -0.0467035
1762 1 0.0251491 0.124942 0.0499226 0.010681 -3.35701 -0.00927354 -0.030869 0.0448354
1845 1 0.0504956 0.149549 0.0502103 0.0438413 -3.35568 -0.0869803 0.0586619 0.00181749
164 1 0.000188163 0.125001 0.0251069 0.0140047 -3.36172 -0.0323984 -0.0328361 -0.0727311
172 1 0.0999014 0.125326 0.0251714 0.0440904 -3.35626 0.0225821 -0.157829 -0.0462137
247 1 0.0749233 0.149772 0.0249554 0.014675 -3.35353 -0.0196661 0.0505615 0.00844851
249 1 0.0999865 0.15038 0.000121454 0.0521131 -3.34905 -0.0625562 -0.122658 -0.109867
1766 1 0.0751354 0.124789 0.05002 0.0116599 -3.36084 -0.0156657 -0.0370761 0.0398581
1849 1 0.100139 0.149992 0.0498794 0.0139699 -3.35938 -0.0215527 0.0652331 0.0180133
170 1 0.124537 0.124752 -0.000133197 0.0439615 -3.36782 0.094122 0.00772965 0.0487513
176 1 0.149993 0.124924 0.0251289 0.021789 -3.35732 -0.151287 -0.0570133 -0.0572855
251 1 0.124926 0.149886 0.0245792 0.0407474 -3.35446 0.0059978 0.0558998 0.127956
1770 1 0.124817 0.125079 0.0503407 0.0264358 -3.35253 0.018867 -0.0508138 -0.127667
1853 1 0.14952 0.149805 0.0500226 0.0340848 -3.36121 0.0556271 0.112556 0.0137634
253 1 0.14965 0.149908 1.27597e-05 0.0114867 -3.34948 -0.0152324 0.056476 -0.045959
180 1 0.200051 0.125108 0.0248076 0.0287778 -3.35703 -0.118799 0.00521207 0.0454957
255 1 0.174293 0.149897 0.0248014 0.0541941 -3.3548 0.167877 0.0853828 0.0681471
1774 1 0.174801 0.124913 0.0497138 0.0150792 -3.35189 -0.00347477 0.00840844 0.0705965
1857 1 0.199598 0.149803 0.0498829 0.0275513 -3.3652 0.0829445 0.0900126 -0.0389283
184 1 0.249557 0.125147 0.0251162 0.0185527 -3.34779 0.074334 -0.0484829 -0.017497
259 1 0.224861 0.150156 0.0250298 0.0129329 -3.35357 -0.0392922 0.0348971 0.0269149
1778 1 0.224856 0.125066 0.0500552 0.016244 -3.35208 -0.0459507 0.0122869 -0.0368631
1861 1 0.249708 0.150162 0.0499586 0.0175211 -3.35911 0.0873613 -0.0178426 0.00597849
188 1 0.30009 0.125439 0.0248668 0.0245979 -3.35888 -0.029141 -0.0689366 -0.00557996
263 1 0.274914 0.150011 0.0250048 0.0139271 -3.36097 0.00941032 0.0230958 0.0327021
1782 1 0.275064 0.125131 0.0500106 0.0158934 -3.35748 -0.045042 0.0352267 -0.0316892
1865 1 0.300183 0.150057 0.0501819 0.0163375 -3.3627 -0.0670291 -0.000984634 -0.0138114
192 1 0.349531 0.125403 0.0248893 0.0365856 -3.3482 0.156843 -0.086014 0.0139789
267 1 0.325008 0.150293 0.0248335 0.0148763 -3.35394 -0.0566676 0.013523 0.0124415
1786 1 0.325004 0.124959 0.049689 0.0214892 -3.35009 -0.0510699 0.0573962 0.0800952
1869 1 0.349748 0.149941 0.0498665 0.0151314 -3.35259 -0.0182597 0.0826679 0.0149964
186 1 0.325319 0.125113 -0.000198549 0.0255445 -3.34789 -0.0738855 0.0851036 0.00157643
196 1 0.399866 0.125221 0.0255493 0.0508779 -3.36317 -0.0269984 -0.0723058 -0.114099
271 1 0.374931 0.150174 0.0249125 0.0162213 -3.35912 -0.0562004 0.00496323 0.0288004
1790 1 0.3746 0.125374 0.0502106 0.0457586 -3.35461 0.087408 -0.0866164 -0.132892
1873 1 0.40004 0.150131 0.0499818 0.0139409 -3.35418 -0.0278288 0.0138188 0.0549905
194 1 0.42486 0.125109 9.25604e-05 0.0207013 -3.36039 0.0114227 -0.0189765 0.0392854
200 1 0.450222 0.125308 0.0248844 0.0360912 -3.35364 -0.0490422 -0.089054 0.034845
275 1 0.425001 0.150052 0.0256077 0.0558254 -3.35761 0.0296574 0.0199305 -0.162587
1794 1 0.425314 0.12497 0.0497734 0.0382665 -3.35328 -0.0635446 -0.0301208 0.0601397
1877 1 0.450269 0.150016 0.050095 0.0227925 -3.3535 -0.0320808 0.0530399 -0.0431369
204 1 0.500045 0.125338 0.0247836 0.0392658 -3.36825 -0.00884944 -0.0563238 0.0362495
279 1 0.474787 0.150056 0.024745 0.0283847 -3.36188 0.0558605 0.0128581 0.0248104
283 1 0.525609 0.150015 0.0250076 0.0357996 -3.35496 -0.111244 -0.0170643 0.0131897
1798 1 0.475053 0.124882 0.0500764 0.0136045 -3.36053 0.000117613 -0.000736474 -0.0898333
1802 1 0.524746 0.124739 0.0499743 0.0360493 -3.35817 0.027247 0.0580459 -0.0290143
1881 1 0.499866 0.150046 0.0498012 0.015681 -3.36164 0.0640222 -0.0301315 -0.00886979
206 1 0.575303 0.12519 -0.000109555 0.0173267 -3.36315 -0.0366315 -0.0267795 0.0871998
208 1 0.550249 0.125339 0.0251796 0.0329606 -3.35065 0.0102983 -0.0778616 -0.0747514
285 1 0.55042 0.150074 -0.000276031 0.0187032 -3.35376 -0.0124138 -0.020132 0.00933443
287 1 0.574824 0.150206 0.0251529 0.0184205 -3.35913 0.0755204 -0.0427142 -0.0257239
1806 1 0.574967 0.124871 0.0500674 0.01154 -3.35364 0.0181441 0.0410204 0.0075431
1885 1 0.549814 0.149783 0.0501 0.02156 -3.34935 0.0105814 0.0537858 -0.0103483
212 1 0.599892 0.125097 0.0253645 0.0186797 -3.36094 -0.013357 -0.0276375 -0.0498214
289 1 0.600069 0.150013 0.000331385 0.0203257 -3.35669 -0.0534124 0.0230207 -0.0523465
291 1 0.624841 0.15014 0.0252812 0.0159764 -3.36198 0.0209078 -0.0349261 -0.00223401
1810 1 0.625099 0.12443 0.0499019 0.0680885 -3.35585 -0.100745 0.156998 0.112155
1889 1 0.599922 0.150018 0.0500856 0.00819881 -3.36105 0.000879901 -0.0309536 0.000923701
214 1 0.674935 0.125102 0.000180014 0.00923449 -3.34773 -0.0432609 -0.0630652 -0.0532498
216 1 0.650149 0.125145 0.0249552 0.0322033 -3.36017 -0.0710873 -0.0651052 0.00647707
293 1 0.649677 0.150099 -1.47208e-05 0.00813085 -3.35644 -0.0119245 0.0246598 0.0102626
295 1 0.674768 0.149976 0.0248899 0.00888331 -3.3537 0.0241016 0.0389842 0.0409966
1814 1 0.675113 0.1251 0.0500455 0.0144249 -3.35781 -0.0136568 -0.0422499 -0.036771
1893 1 0.649685 0.149674 0.0503322 0.0584695 -3.35749 0.0149614 0.080605 -0.0866812
220 1 0.69995 0.125113 0.0246009 0.0185072 -3.35636 0.0401543 -0.00734984 0.0819562
299 1 0.724802 0.150138 0.0244285 0.0422402 -3.36991 0.0541516 0.0207712 0.118456
1818 1 0.725006 0.125382 0.0498322 0.0183725 -3.35863 0.0145581 -0.0776672 -0.0459172
1897 1 0.700024 0.150139 0.0498855 0.00923929 -3.35622 0.00880648 0.0221174 -0.0782231
297 1 0.699581 0.150045 2.62655e-05 0.0264401 -3.35497 0.0966896 0.0205022 -0.0439372
222 1 0.774913 0.125193 0.000134559 0.0177333 -3.36471 0.0319986 0.0094213 -0.00913612
224 1 0.750185 0.125042 0.0250926 0.0181256 -3.35863 -0.0152787 0.0764726 -0.040975
303 1 0.775157 0.150492 0.0252687 0.0296502 -3.35758 -0.0145194 -0.066654 -0.0945004
1822 1 0.774851 0.125537 0.0498584 0.0634873 -3.35371 0.0804506 -0.178033 0.0497078
1901 1 0.750055 0.150393 0.049915 0.0161427 -3.35247 -0.0538955 -0.0268957 -0.0263807
228 1 0.800162 0.125039 0.0249034 0.0198725 -3.362 -0.0388561 -0.00401756 0.0992555
307 1 0.825099 0.149921 0.0254462 0.0329555 -3.36058 -0.0613529 0.0768972 -0.0712124
1826 1 0.825117 0.124969 0.0504825 0.0192217 -3.35548 -0.0414826 -0.0258544 -0.0899835
1905 1 0.799945 0.149642 0.0504012 0.0624827 -3.35689 0.0613702 0.131652 -0.0744477
305 1 0.800107 0.149981 -8.92012e-05 0.01443 -3.36604 -0.033515 0.0470976 0.0113721
230 1 0.874693 0.124969 9.18825e-05 0.0186577 -3.36071 0.0507329 0.0313046 0.0518424
232 1 0.849814 0.125053 0.0254815 0.0297781 -3.36178 0.0864854 -0.029762 -0.0738265
311 1 0.875019 0.150012 0.0249712 0.00755398 -3.35802 -0.0561013 -0.0503887 2.28049e-06
1830 1 0.875165 0.125084 0.0502421 0.0181953 -3.35959 -0.0576255 -0.0394099 -0.0891
1909 1 0.849949 0.150242 0.0500622 0.0101428 -3.35624 -0.0129869 0.00746065 0.0236921
236 1 0.900298 0.124832 0.0248009 0.0317706 -3.36504 -0.112047 0.0754552 0.0773892
313 1 0.900114 0.149887 3.92514e-05 0.0163734 -3.35964 -0.0436777 0.0086542 -0.0536078
315 1 0.924968 0.150335 0.0248554 0.0323133 -3.35406 -0.0287924 -0.0824339 0.0136841
1834 1 0.925066 0.125025 0.0499788 0.0183602 -3.36404 -0.0586814 0.0111771 0.0167896
1913 1 0.899758 0.150034 0.0499417 0.0116621 -3.35823 0.0704214 0.00392216 0.0163504
1841 1 0.999774 0.14956 0.0499161 0.0435778 -3.35237 0.112938 0.124645 0.028946
238 1 0.975246 0.124694 -6.10009e-05 0.0431456 -3.36861 -0.00710191 0.0623465 0.0648116
240 1 0.949648 0.125183 0.0249172 0.0290393 -3.35772 0.0863989 -0.08027 -0.00178558
319 1 0.974829 0.149988 0.0252827 0.0138867 -3.35216 0.0617786 -0.032741 -0.0558051
1838 1 0.974851 0.125121 0.050253 0.0211559 -3.3588 -0.00779201 -0.0893667 -0.0696972
1917 1 0.949721 0.149724 0.04993 0.0356854 -3.34554 0.0212653 0.0588758 0.0793112
241 1 1.00002 0.150158 0.000267751 0.0242462 -3.36514 -0.0296724 -0.0969641 -0.022049
242 1 0.0250925 0.17489 0.000166349 0.0336022 -3.35592 -0.0327792 0.0306576 0.0305588
248 1 0.0499585 0.174536 0.0252357 0.0315047 -3.35857 -0.0145203 0.0929989 -0.043385
323 1 0.02457 0.200135 0.02491 0.0349393 -3.35641 0.120587 -0.0669115 0.0072487
325 1 0.0495324 0.200226 0.00021369 0.0312347 -3.36221 0.0755403 -0.0721935 0.0023706
1842 1 0.0252475 0.174813 0.0499977 0.0199421 -3.36465 -0.0783862 -0.0351859 0.000215395
1925 1 0.0496874 0.19982 0.0500187 0.0207317 -3.35879 0.0260802 0.0494941 0.00690029
246 1 0.0744119 0.174748 7.90157e-05 0.0484142 -3.36271 0.0667622 0.135341 -0.0205267
252 1 0.0996164 0.175031 0.0246809 0.0190743 -3.35878 0.0339501 0.0094972 0.0701148
327 1 0.0745226 0.199923 0.0253341 0.0282237 -3.35862 0.0438909 -0.00706101 -0.106612
329 1 0.0997219 0.200281 -1.36483e-05 0.0118623 -3.36162 -0.0758775 -0.0581693 0.0274184
1846 1 0.0751012 0.175035 0.0502194 0.0225265 -3.34951 -0.0427711 -0.0519552 -0.0607409
1929 1 0.0997375 0.199937 0.0497239 0.0238689 -3.35203 -0.00530199 0.0704114 0.086095
250 1 0.12464 0.175169 -0.000211835 0.00676682 -3.35997 0.0618252 0.0162223 0.0193814
256 1 0.149687 0.17514 0.0250446 0.0100788 -3.36514 -0.0300206 -0.00349885 -0.0269607
331 1 0.12461 0.200117 0.0246948 0.0172847 -3.35238 0.0485438 -0.0401975 0.00402342
1850 1 0.124754 0.175442 0.0498759 0.0247228 -3.36043 0.0264769 -0.141984 -0.0183906
1933 1 0.149486 0.200256 0.049992 0.0299187 -3.34954 0.135184 -0.111202 0.0144892
260 1 0.200088 0.175176 0.0253965 0.0477612 -3.36012 -0.0579734 -0.11157 -0.0837567
335 1 0.174869 0.199818 0.0252235 0.0171745 -3.35766 -0.0336875 0.065655 -0.088046
1854 1 0.174623 0.17494 0.0500355 0.0153709 -3.36243 -0.0156629 -0.0211867 0.0067004
1937 1 0.199474 0.199989 0.0498307 0.0503003 -3.36132 0.151002 0.0270432 0.0849101
264 1 0.249953 0.17491 0.0249302 0.00784309 -3.36083 0.0559449 0.0196008 -0.0160022
339 1 0.225154 0.199963 0.0250196 0.00890033 -3.35258 -0.0347029 -0.0043521 -0.00482042
1858 1 0.225123 0.175173 0.0501799 0.0279276 -3.36099 -0.113437 -0.0299519 -0.0242854
1941 1 0.249921 0.200033 0.0499211 0.0131883 -3.35586 0.0491984 -0.00562983 0.0545607
268 1 0.299716 0.174783 0.0249856 0.0263025 -3.35544 0.0574628 0.0529993 0.00432612