LAMMPS (27 Jun 2024)
OMP_NUM_THREADS environment is not set. Defaulting to 1 thread. (src/comm.cpp:98)
  using 1 OpenMP thread(s) per MPI task
Loaded 1 plugins from C:\Users\nashi\AppData\Local\LAMMPS 64-bit 27Jun2024-MSMPI\plugins
boundary p p f
units real
atom_style full
bond_style harmonic
angle_style harmonic
pair_style lj/cut/tip4p/long 1 2 1 1 0.1546 12.0
kspace_style pppm/tip4p 1.0e-4
kspace_modify slab 3.0

read_data ../equilibration/system.data
Reading data file ...
  orthogonal box = (-12.12 -12.12 -20.2) to (12.12 12.12 20.2)
  1 by 2 by 2 MPI processor grid
  reading atoms ...
  1665 atoms
  reading velocities ...
  1665 velocities
  scanning bonds ...
  2 = max bonds/atom
  scanning angles ...
  1 = max angles/atom
  orthogonal box = (-12.12 -12.12 -20.2) to (12.12 12.12 20.2)
  1 by 2 by 2 MPI processor grid
  reading bonds ...
  802 bonds
  reading angles ...
  401 angles
Finding 1-2 1-3 1-4 neighbors ...
  special bond factors lj:    0        0        0       
  special bond factors coul:  0        0        0       
     2 = max # of 1-2 neighbors
     1 = max # of 1-3 neighbors
     1 = max # of 1-4 neighbors
     2 = max # of special neighbors
  special bonds CPU = 0.000 seconds
  read_data CPU = 0.035 seconds

include ../PARM.lammps
mass 1 15.9994 # water
mass 2 1.008 # water
mass 3 28.990 # ion
mass 4 35.453 # ion
mass 5 26.9815 # wall

pair_coeff 1 1 0.185199 3.1589 # water
pair_coeff 2 2 0.0 1.0 # water
pair_coeff 3 3 0.04690 2.4299 # ion
pair_coeff 4 4 0.1500 4.04470 # ion
pair_coeff 5 5 11.697 2.574 # wall
pair_coeff 1 5 0.4 2.86645 # water-wall

bond_coeff 1 0 0.9572 # water

angle_coeff 1 0 104.52 # water
include ../GROUP.lammps
group H2O type 1 2
1203 atoms in group H2O
group Na type 3
15 atoms in group Na
group Cl type 4
15 atoms in group Cl
group ions union Na Cl
30 atoms in group ions
group fluid union H2O ions
1233 atoms in group fluid

group wall type 5
432 atoms in group wall
region rtop block INF INF INF INF 0 INF
region rbot block INF INF INF INF INF 0
group top region rtop
842 atoms in group top
group bot region rbot
823 atoms in group bot
group walltop intersect wall top
216 atoms in group walltop
group wallbot intersect wall bot
216 atoms in group wallbot

fix mynve all nve
compute Tfluid fluid temp/partial 0 1 1
fix myber1 fluid temp/berendsen 300 300 100
fix_modify myber1 temp Tfluid
compute Twall wall temp/partial 0 1 1
fix myber2 wall temp/berendsen 300 300 100
fix_modify myber2 temp Twall
fix myshk H2O shake 1.0e-4 200 0 b 1 a 1
Finding SHAKE clusters ...
       0 = # of size 2 clusters
       0 = # of size 3 clusters
       0 = # of size 4 clusters
     401 = # of frozen angles
  find clusters CPU = 0.000 seconds
fix myrct all recenter NULL NULL 0

fix mysf1 walltop setforce 0 NULL NULL
fix mysf2 wallbot setforce 0 NULL NULL
velocity wallbot set -2e-4 NULL NULL
velocity walltop set 2e-4 NULL NULL

dump mydmp all atom 500 dump.lammpstrj
thermo 50
thermo_modify temp Tfluid
WARNING: Temperature for thermo pressure is not for group all (src/thermo.cpp:533)

compute cc1 H2O chunk/atom bin/1d z 0.0 1.0
compute cc2 wall chunk/atom bin/1d z 0.0 1.0
compute cc3 ions chunk/atom bin/1d z 0.0 1.0

fix myac1 H2O ave/chunk 10 15000 200000 cc1 density/mass vx file water.profile_1A.dat
fix myac2 wall ave/chunk 10 15000 200000 cc2 density/mass vx file wall.profile_1A.dat
fix myac3 ions ave/chunk 10 15000 200000 cc3 density/mass vx file ions.profile_1A.dat

fix myat1 all ave/time 10 100 1000 f_mysf1[1] f_mysf2[1] file forces.dat

timestep 1.0
run 200000

CITE-CITE-CITE-CITE-CITE-CITE-CITE-CITE-CITE-CITE-CITE-CITE-CITE

Your simulation uses code contributions which should be cited:

- Type Label Framework: https://doi.org/10.1021/acs.jpcb.3c08419

@Article{Gissinger24,
 author = {Jacob R. Gissinger, Ilia Nikiforov, Yaser Afshar, Brendon Waters, Moon-ki Choi, Daniel S. Karls, Alexander Stukowski, Wonpil Im, Hendrik Heinz, Axel Kohlmeyer, and Ellad B. Tadmor},
 title = {Type Label Framework for Bonded Force Fields in LAMMPS},
 journal = {J. Phys. Chem. B},
 year =    2024,
 volume =  128,
 number =  13,
 pages =   {3282–-3297}
}

CITE-CITE-CITE-CITE-CITE-CITE-CITE-CITE-CITE-CITE-CITE-CITE-CITE

PPPM initialization ...
  extracting TIP4P info from pair style
  using 12-bit tables for long-range coulomb (src/kspace.cpp:342)
  G vector (1/distance) = 0.22477066
  grid = 12 12 40
  stencil order = 5
  estimated absolute RMS force accuracy = 0.023142321
  estimated relative force accuracy = 6.9692414e-05
  using double precision FFTW3
  3d grid and FFT values/proc = 8892 2376
WARNING: Communication cutoff 0 is shorter than a bond length based estimate of 3.4358. This may lead to errors. (src/comm.cpp:730)
WARNING: Increasing communication cutoff to 15.1118 for TIP4P pair style (src/KSPACE/pair_lj_cut_tip4p_long.cpp:478)
Generated 9 of 10 mixed pair_coeff terms from geometric mixing rule
Neighbor list info ...
  update: every = 1 steps, delay = 0 steps, check = yes
  max neighbors/atom: 2000, page size: 100000
  master list distance cutoff = 14.3092
  ghost atom cutoff = 15.1118
  binsize = 7.1546, bins = 4 4 6
  1 neighbor lists, perpetual/occasional/extra = 1 0 0
  (1) pair lj/cut/tip4p/long, perpetual
      attributes: half, newton on
      pair build: half/bin/newton
      stencil: half/bin/3d
      bin: standard
Per MPI rank memory allocation (min/avg/max) = 10.43 | 10.45 | 10.47 Mbytes
   Step          Temp          E_pair         E_mol          TotEng         Press     
         0   318.63838     -38091.581      0             -37565.391     -15562.092    
        50   304.69824     -38059.683      0             -37556.513     -16361.741    
       100   324.69746     -38070.695      0             -37534.5       -15701.484    
       150   305.36046     -38032.893      0             -37528.631     -15705.201    
       200   324.67197     -38087.303      0             -37551.149     -15824.426    
       250   315.93088     -38102.628      0             -37580.909     -16135.886    
       300   299.1894      -38101.208      0             -37607.136     -15646.683    
       350   301.15869     -38076.538      0             -37579.214     -14974.901    
       400   310.63661     -38106.397      0             -37593.422     -16312.106    
       450   304.71897     -38087.519      0             -37584.316     -15099.904    
       500   306.46492     -38118.159      0             -37612.072     -16723.988    
       550   319.61222     -38147.467      0             -37619.67      -15614.83     
       600   288.23385     -38085.68       0             -37609.699     -16343.393    
       650   297.7623      -38091.795      0             -37600.08      -15801.073    
       700   286.45378     -38086.124      0             -37613.083     -16329.117    
       750   298.36496     -38098.056      0             -37605.346     -16583.889    
       800   304.99348     -38115.878      0             -37612.221     -17393.152    
       850   305.43138     -38109.337      0             -37604.957     -15452.585    
       900   293.50669     -38119.083      0             -37634.395     -18056.889    
       950   306.23121     -38111.376      0             -37605.675     -15800.136    
      1000   309.05449     -38147.184      0             -37636.821     -18281.973    
      1050   310.28176     -38136.135      0             -37623.745     -15759.877    
      1100   315.47308     -38129.807      0             -37608.845     -17575.845    
      1150   309.9874      -38115.331      0             -37603.428     -15733.312    
      1200   299.79387     -38121.384      0             -37626.314     -16927.532    
      1250   290.64832     -38074.042      0             -37594.074     -14698.267    
      1300   308.95666     -38113.91       0             -37603.709     -16903.878    
      1350   290.76397     -38110.408      0             -37630.249     -15598.084    
      1400   295.75073     -38087.989      0             -37599.596     -16659.906    
      1450   286.07154     -38070.836      0             -37598.427     -15293.59     
      1500   298.85782     -38115.796      0             -37622.271     -16354.556    
      1550   309.68655     -38149.624      0             -37638.218     -15921.11     
      1600   294.8491      -38119.518      0             -37632.613     -16071.171    
      1650   300.14384     -38125.232      0             -37629.584     -15735.958    
      1700   291.42969     -38115.044      0             -37633.786     -15530.286    
      1750   291.78829     -38105.348      0             -37623.498     -16245.452    
      1800   300.45146     -38113.966      0             -37617.81      -16126.237    
      1850   296.16329     -38112.626      0             -37623.551     -17065.278    
      1900   298.73813     -38117.14       0             -37623.813     -15734.666    
      1950   299.83844     -38116.858      0             -37621.715     -17041.116    
      2000   295.80934     -38093.047      0             -37604.557     -15971.221    
      2050   300.49261     -38127.635      0             -37631.411     -16377.609    
      2100   294.65215     -38137.159      0             -37650.579     -15585.405    
      2150   288.76544     -38097.763      0             -37620.905     -16683.772    
      2200   297.43811     -38099.521      0             -37608.341     -15454.36     
      2250   296.98518     -38083.033      0             -37592.601     -16408.032    
      2300   301.66874     -38112.506      0             -37614.34      -15827.499    
      2350   300.16417     -38102.227      0             -37606.545     -16088.013    
      2400   300.76227     -38124.047      0             -37627.378     -15787.207    
      2450   297.90464     -38116.524      0             -37624.574     -16647.166    
      2500   313.83597     -38113.319      0             -37595.06      -15769.968    
      2550   320.37632     -38176.742      0             -37647.683     -16577.953    
      2600   303.31304     -38153.859      0             -37652.978     -16834.766    
      2650   303.56431     -38175.281      0             -37673.984     -15781.028    
      2700   302.9062      -38127.191      0             -37626.981     -16104.898    
      2750   315.29168     -38179.701      0             -37659.038     -16220.62     
      2800   306.32726     -38161.609      0             -37655.75      -17256.797    
      2850   301.18746     -38153.405      0             -37656.033     -15704.19     
      2900   300.62759     -38153.654      0             -37657.207     -17360.123    
      2950   298.52437     -38136.928      0             -37643.955     -15256.978    
      3000   300.98311     -38150.676      0             -37653.642     -17479.722    
      3050   289.9784      -38156.726      0             -37677.865     -16191.261    
      3100   294.53301     -38147.492      0             -37661.11      -17771.312    
      3150   298.70584     -38157.937      0             -37664.663     -15247.955    
      3200   291.95244     -38131.544      0             -37649.423     -16906.122    
      3250   304.68263     -38172.348      0             -37669.204     -15111.033    
      3300   311.56177     -38194.588      0             -37680.084     -17497.872    
      3350   296.89907     -38146.755      0             -37656.465     -14731.125    
      3400   291.47938     -38164.169      0             -37682.829     -16887.115    
      3450   300.75811     -38168.266      0             -37671.603     -16163.877    
      3500   290.30705     -38156.299      0             -37676.895     -16102.943    
      3550   299.298       -38185.236      0             -37690.984     -16209.337    
      3600   303.94332     -38161.506      0             -37659.583     -15873.026    
      3650   308.92058     -38182.38       0             -37672.238     -16015.886    
      3700   300.93122     -38183.874      0             -37686.926     -15672.003    
      3750   297.18136     -38188.571      0             -37697.815     -16530.569    
      3800   302.38226     -38172.048      0             -37672.704     -14950.833    
      3850   300.20339     -38168.35       0             -37672.603     -16884.583    
      3900   296.65075     -38162.06       0             -37672.18      -14277.629    
      3950   310.31073     -38194.991      0             -37682.553     -17516.53     
      4000   304.42703     -38189.279      0             -37686.558     -13856.977    
      4050   304.27972     -38179.225      0             -37676.747     -17281.273    
      4100   302.64477     -38168.525      0             -37668.746     -14725.658    
      4150   314.36197     -38193.243      0             -37674.115     -17504.09     
      4200   290.47056     -38165.16       0             -37685.486     -13927.369    
      4250   291.84173     -38160.899      0             -37678.961     -16374.002    
      4300   295.70214     -38182.463      0             -37694.149     -13951.947    
      4350   294.119       -38162.05       0             -37676.351     -16578.967    
      4400   309.01776     -38184.995      0             -37674.692     -14442.153    
      4450   304.92768     -38203.836      0             -37700.288     -17034.089    
      4500   293.33725     -38188.656      0             -37704.249     -14399.301    
      4550   307.38437     -38209.692      0             -37702.087     -16708.78     
      4600   295.99318     -38193.89       0             -37705.096     -14359.143    
      4650   291.81097     -38159.555      0             -37677.667     -16842.431    
      4700   296.33205     -38167.218      0             -37677.864     -14754.721    
      4750   309.71356     -38210.301      0             -37698.85      -16273.066    
      4800   296.93138     -38196.12       0             -37705.777     -15154.693    
      4850   297.28784     -38191.559      0             -37700.627     -16878.691    
      4900   303.74176     -38197.027      0             -37695.438     -16611.856    
      4950   292.54109     -38173.227      0             -37690.133     -17205.203    
      5000   294.50292     -38167.636      0             -37681.303     -16771.412    
      5050   289.35557     -38135.626      0             -37657.793     -17103.341    
      5100   301.52087     -38148.72       0             -37650.798     -16401.705    
      5150   314.90874     -38184.521      0             -37664.491     -17766.616    
      5200   294.56222     -38172.698      0             -37686.267     -16720.24     
      5250   298.32941     -38192.845      0             -37700.193     -17028.575    
      5300   310.33843     -38187.798      0             -37675.315     -16933.288    
      5350   296.34377     -38153.146      0             -37663.773     -16158.123    
      5400   302.23333     -38179.433      0             -37680.334     -17482.461    
      5450   299.35894     -38171.125      0             -37676.773     -15908.052    
      5500   294.89622     -38160.919      0             -37673.937     -17933.89     
      5550   299.84265     -38174.808      0             -37679.657     -15931.427    
      5600   295.36438     -38154.756      0             -37667         -17391.744    
      5650   296.59218     -38149.942      0             -37660.159     -16359.679    
      5700   296.42445     -38152.997      0             -37663.491     -17475.525    
      5750   301.971       -38161.001      0             -37662.336     -15873.536    
      5800   298.94011     -38139.489      0             -37645.829     -16927.017    
      5850   303.99091     -38165.037      0             -37663.036     -17039.205    
      5900   301.09582     -38175.065      0             -37677.845     -16920.461    
      5950   300.8143      -38169.242      0             -37672.487     -16530.093    
      6000   314.33805     -38183.008      0             -37663.92      -16782.968    
      6050   302.92157     -38177.351      0             -37677.116     -17550.004    
      6100   292.4632      -38144.911      0             -37661.946     -16023.411    
      6150   296.70921     -38166.562      0             -37676.586     -17492.929    
      6200   295.85239     -38167.726      0             -37679.164     -15706.29     
      6250   292.01516     -38152.286      0             -37670.061     -17516.673    
      6300   290.93873     -38130.289      0             -37649.841     -15095.71     
      6350   307.02518     -38171.069      0             -37664.058     -17086.372    
      6400   304.37439     -38144.261      0             -37641.627     -13850.184    
      6450   296.7394      -38146.623      0             -37656.596     -17114.878    
      6500   297.81083     -38137.257      0             -37645.461     -14535.88     
      6550   310.32298     -38185.197      0             -37672.74      -16647.287    
      6600   294.55645     -38164.924      0             -37678.503     -15116.905    
      6650   310.24086     -38175.496      0             -37663.174     -17037.673    
      6700   301.93404     -38181.151      0             -37682.546     -15369.412    
      6750   303.01055     -38178.927      0             -37678.545     -16508.325    
      6800   280.95532     -38130.333      0             -37666.372     -14872.279    
      6850   311.10436     -38190.836      0             -37677.088     -16574.208    
      6900   295.20662     -38166.55       0             -37679.055     -15269.6      
      6950   305.72961     -38182.166      0             -37677.294     -16697.44     
      7000   288.38234     -38162.702      0             -37686.476     -15451.192    
      7050   295.95599     -38151.482      0             -37662.75      -15965.681    
      7100   294.65093     -38156.337      0             -37669.76      -16811.152    
      7150   293.90631     -38147.242      0             -37661.894     -15679.54     
      7200   295.14157     -38147.634      0             -37660.247     -16819.995    
      7250   295.04175     -38151.204      0             -37663.981     -16276.904    
      7300   287.81182     -38113.073      0             -37637.79      -15866.084    
      7350   283.57693     -38093.148      0             -37624.858     -15466.318    
      7400   295.19321     -38134.585      0             -37647.112     -16807.112    
      7450   300.31658     -38122.306      0             -37626.373     -15718        
      7500   299.73872     -38122.4        0             -37627.421     -16667.489    
      7550   308.2345      -38132.322      0             -37623.313     -15432.918    
      7600   320.62962     -38161.755      0             -37632.277     -17112.992    
      7650   319.27129     -38182.889      0             -37655.655     -15805.605    
      7700   302.24484     -38157.034      0             -37657.916     -16444.57     
      7750   307.93595     -38191.892      0             -37683.376     -16398.808    
      7800   300.93627     -38155.276      0             -37658.319     -16805.444    
      7850   300.73767     -38166.292      0             -37669.663     -17002.623    
      7900   311.63528     -38169.543      0             -37654.918     -17197.912    
      7950   304.45143     -38169.953      0             -37667.192     -16635.576    
      8000   307.38509     -38190.424      0             -37682.818     -16574.453    
      8050   293.24894     -38172.336      0             -37688.074     -15707.925    
      8100   300.86759     -38177.7        0             -37680.857     -15338.888    
      8150   314.60982     -38201.057      0             -37681.52      -16135.053    
      8200   296.98939     -38186.895      0             -37696.456     -15604.467    
      8250   307.29153     -38194.831      0             -37687.38      -16148.699    
      8300   285.01916     -38168.684      0             -37698.013     -15912.871    
      8350   296.6608      -38186.251      0             -37696.355     -16452.408    
      8400   296.63855     -38185.639      0             -37695.78      -15010.965    
      8450   300.32716     -38212.07       0             -37716.119     -16244.308    
      8500   307.59999     -38192.721      0             -37684.76      -15235.736    
      8550   306.87799     -38195.071      0             -37688.302     -17005.66     
      8600   288.80744     -38168.231      0             -37691.303     -14934.732    
      8650   292.45124     -38173.788      0             -37690.843     -17250.973    
      8700   302.75461     -38205.591      0             -37705.631     -15807.564    
      8750   303.80273     -38181.496      0             -37679.805     -16448.072    
      8800   303.77089     -38201.867      0             -37700.229     -15504.023    
      8850   310.5004      -38195.871      0             -37683.12      -16911.065    
      8900   305.8838      -38203.119      0             -37697.992     -15106.549    
      8950   309.68712     -38209.233      0             -37697.825     -16915.383    
      9000   306.3266      -38201.465      0             -37695.607     -14794.687    
      9050   306.23238     -38207.02       0             -37701.317     -16850.825    
      9100   300.75437     -38208.839      0             -37712.183     -15981.519    
      9150   300.57978     -38215.475      0             -37719.107     -17603.468    
      9200   282.92309     -38169.397      0             -37702.187     -14629.188    
      9250   294.38375     -38182.175      0             -37696.039     -17183.739    
      9300   307.61533     -38225.073      0             -37717.087     -15762.559    
      9350   303.52462     -38213.331      0             -37712.1       -17017.117    
      9400   289.73234     -38192.475      0             -37714.02      -15803.199    
      9450   303.68873     -38196.198      0             -37694.696     -16721.811    
      9500   294.38341     -38179.133      0             -37692.998     -15277.948    
      9550   302.67085     -38196.432      0             -37696.611     -16215.893    
      9600   304.26913     -38214.004      0             -37711.543     -16791.055    
      9650   291.11927     -38187.326      0             -37706.58      -16414.329    
      9700   296.3657      -38181.271      0             -37691.862     -16424.801    
      9750   298.25492     -38198.715      0             -37706.186     -16624.911    
      9800   295.62466     -38193.927      0             -37705.742     -16658.939    
      9850   304.77001     -38190.7        0             -37687.412     -15414.102    
      9900   310.20465     -38212.109      0             -37699.847     -16548.66     
      9950   302.37503     -38189.816      0             -37690.483     -16068.583    
     10000   301.22078     -38194.629      0             -37697.203     -16611.328    
     10050   287.30036     -38164.633      0             -37690.194     -15391.542    
     10100   294.90707     -38194.963      0             -37707.962     -16855.678    
     10150   301.7939      -38204.173      0             -37705.8       -15427.23     
     10200   302.66893     -38192.913      0             -37693.095     -16769.905    
     10250   299.55568     -38192.526      0             -37697.849     -14692.55     
     10300   311.19747     -38200.74       0             -37686.838     -16788.616    
     10350   307.83577     -38233.266      0             -37724.916     -15023.985    
     10400   300.22822     -38189.173      0             -37693.386     -16819.032    
     10450   310.21473     -38218.219      0             -37705.94      -13130.228    
     10500   291.46419     -38193.496      0             -37712.181     -17111.254    
     10550   292.66995     -38203.075      0             -37719.769     -13468.445    
     10600   290.53516     -38200.827      0             -37721.046     -18597.321    
     10650   307.71577     -38196.974      0             -37688.821     -13666.468    
     10700   311.04487     -38231.007      0             -37717.357     -18428.943    
     10750   295.216       -38206.59       0             -37719.079     -14225.715    
     10800   297.55748     -38199.635      0             -37708.258     -18304.859    
     10850   297.9975      -38222.999      0             -37730.895     -15216.099    
     10900   298.8504      -38200.117      0             -37706.605     -17033.544    
     10950   296.7848      -38185.563      0             -37695.462     -14287.281    
     11000   294.38801     -38178.242      0             -37692.099     -17050.431    
     11050   314.14482     -38252.463      0             -37733.694     -15202.208    
     11100   295.99971     -38196.337      0             -37707.532     -16742.527    
     11150   299.96706     -38204.599      0             -37709.243     -14044.79     
     11200   298.17837     -38206.666      0             -37714.263     -16986.77     
     11250   300.81191     -38212.024      0             -37715.272     -14886.887    
     11300   300.21324     -38230.586      0             -37734.823     -17982.012    
     11350   291.52999     -38172.578      0             -37691.155     -15494.064    
     11400   304.70429     -38207.343      0             -37704.164     -16247.166    
     11450   297.37601     -38221.098      0             -37730.021     -14888.227    
     11500   294.47878     -38215.446      0             -37729.153     -15951.366    
     11550   304.45388     -38216.958      0             -37714.192     -15473.666    
     11600   299.83382     -38215.337      0             -37720.201     -15620.553    
     11650   289.42649     -38197.095      0             -37719.145     -16254.129    
     11700   309.30777     -38224.337      0             -37713.556     -15875.591    
     11750   297.50336     -38198.172      0             -37706.885     -16605.103    
     11800   301.3294      -38228.575      0             -37730.97      -15338.843    
     11850   302.43384     -38212.447      0             -37713.018     -16336.874    
     11900   294.60328     -38218.725      0             -37732.226     -15030.05     
     11950   298.6704      -38219.53       0             -37726.315     -16623.856    
     12000   292.73641     -38184.369      0             -37700.954     -14932.999    
     12050   303.39006     -38199.752      0             -37698.743     -16869.704    
     12100   309.49678     -38204.09       0             -37692.997     -14610.714    
     12150   302.62866     -38210.391      0             -37710.64      -16070.247    
     12200   306.86641     -38227.648      0             -37720.899     -14892.47     
     12250   299.95193     -38235.652      0             -37740.32      -17818.895    
     12300   301.05245     -38237.114      0             -37739.965     -14711.187    
     12350   302.96639     -38227.111      0             -37726.802     -17146.533    
     12400   290.47625     -38200.235      0             -37720.552     -14682.226    
     12450   310.68947     -38222.116      0             -37709.053     -16370.175    
     12500   313.14472     -38228.947      0             -37711.83      -15262.534    
     12550   306.36333     -38228.782      0             -37722.863     -16643.4      
     12600   286.54008     -38230.22       0             -37757.037     -15378.233    
     12650   294.41754     -38232.762      0             -37746.571     -16631.629    
     12700   292.11081     -38215.349      0             -37732.966     -15439.419    
     12750   292.57602     -38191.991      0             -37708.84      -15919.994    
     12800   298.27586     -38210.179      0             -37717.616     -15164.224    
     12850   304.35496     -38235.172      0             -37732.57      -16505.714    
     12900   283.3757      -38170.631      0             -37702.673     -15871.453    
     12950   304.1247      -38197.922      0             -37695.7       -15411.77     
     13000   305.21422     -38203.352      0             -37699.33      -16032.016    
     13050   283.80931     -38194.464      0             -37725.791     -15345.037    
     13100   302.07184     -38217.71       0             -37718.878     -16382.369    
     13150   301.97749     -38214.161      0             -37715.485     -16012.326    
     13200   289.50491     -38192.096      0             -37714.016     -16337.833    
     13250   310.69025     -38260.518      0             -37747.454     -16364.813    
     13300   305.59276     -38213.239      0             -37708.592     -16972.885    
     13350   282.21186     -38152.008      0             -37685.972     -15803.282    
     13400   295.85474     -38162.766      0             -37674.201     -15806.929    
     13450   295.61416     -38193.095      0             -37704.927     -17148.086    
     13500   309.18461     -38219.698      0             -37709.12      -14910.769    
     13550   292.4995      -38181.359      0             -37698.334     -17523.978    
     13600   308.93899     -38235.213      0             -37725.041     -15732.563    
     13650   295.48077     -38200.564      0             -37712.617     -17843.742    
     13700   299.4513      -38214.393      0             -37719.889     -14527.497    
     13750   302.02098     -38187.543      0             -37688.795     -17661.098    
     13800   294.36259     -38176.724      0             -37690.623     -14273.474    
     13850   303.92348     -38186.278      0             -37684.388     -18181.052    
     13900   299.34123     -38215.622      0             -37721.299     -14595.655    
     13950   302.56222     -38192.181      0             -37692.539     -18587.63     
     14000   295.18794     -38221.84       0             -37734.376     -15949.667    
     14050   309.20229     -38227.212      0             -37716.605     -18354.331    
     14100   290.75084     -38180.261      0             -37700.124     -15394.137    
     14150   284.87413     -38157.515      0             -37687.083     -18419.896    
     14200   286.27975     -38155.141      0             -37682.387     -15112.122    
     14250   311.95811     -38185.221      0             -37670.063     -17699.21     
     14300   288.77491     -38176.061      0             -37699.188     -14479.784    
     14350   301.80877     -38153.682      0             -37655.284     -17474.656    
     14400   293.54332     -38158.378      0             -37673.63      -15672.091    
     14450   308.8003      -38178.582      0             -37668.638     -17795.404    
     14500   290.55538     -38180.042      0             -37700.228     -15350.51     
     14550   307.91006     -38215.346      0             -37706.873     -17758.005    
     14600   302.1476      -38212.061      0             -37713.104     -15241.493    
     14650   304.09445     -38165.631      0             -37663.459     -16597.935    
     14700   299.14583     -38169.451      0             -37675.451     -15585.827    
     14750   305.24587     -38178.636      0             -37674.563     -16089.688    
     14800   310.42987     -38195.125      0             -37682.49      -15765.614    
     14850   308.87468     -38186.703      0             -37676.637     -15795.844    
     14900   310.14427     -38198.53       0             -37686.368     -16261.385    
     14950   302.52912     -38213.737      0             -37714.15      -16624.677    
     15000   303.03764     -38183.621      0             -37683.194     -15719.045    
     15050   293.01093     -38173.08       0             -37689.211     -15942.059    
     15100   305.03486     -38206.842      0             -37703.117     -16289.951    
     15150   316.66305     -38221.585      0             -37698.658     -16065.078    
     15200   307.04359     -38195.601      0             -37688.559     -15927.195    
     15250   311.49826     -38216.87       0             -37702.471     -15926.722    
     15300   288.45623     -38180.483      0             -37704.135     -16615.309    
     15350   299.4075      -38178.878      0             -37684.446     -16071.398    
     15400   304.69066     -38197.999      0             -37694.842     -16199.776    
     15450   303.98151     -38197.934      0             -37695.948     -16108.89     
     15500   298.06018     -38178.536      0             -37686.329     -16611.591    
     15550   303.71008     -38212.257      0             -37710.72      -15771.14     
     15600   295.62643     -38207.588      0             -37719.4       -16136.923    
     15650   289.86017     -38183.86       0             -37705.194     -15228.375    
     15700   303.5321      -38208.83       0             -37707.587     -16585.59     
     15750   308.91579     -38223.704      0             -37713.57      -15177.27     
     15800   298.50601     -38220.949      0             -37728.005     -15696.147    
     15850   288.80566     -38207.143      0             -37730.219     -14684.062    
     15900   291.36807     -38191.891      0             -37710.735     -14836.052    
     15950   296.89425     -38205.254      0             -37714.972     -15266.715    
     16000   287.55907     -38167.178      0             -37692.312     -14833.368    
     16050   283.85239     -38203.206      0             -37734.462     -15660.443    
     16100   294.32929     -38182.433      0             -37696.387     -15625.226    
     16150   301.09048     -38215.128      0             -37717.916     -15777.614    
     16200   289.12187     -38194.782      0             -37717.336     -16220.315    
     16250   288.79054     -38213.968      0             -37737.069     -16275.74     
     16300   288.38128     -38185.645      0             -37709.421     -15991.881    
     16350   303.49697     -38204.011      0             -37702.825     -16193.788    
     16400   298.82014     -38184.448      0             -37690.986     -15255.089    
     16450   298.06193     -38215.503      0             -37723.293     -16499.852    
     16500   299.34862     -38190.252      0             -37695.917     -14934.685    
     16550   295.72603     -38185.378      0             -37697.025     -16769.94     
     16600   311.93611     -38227.347      0             -37712.226     -14810.13     
     16650   300.63072     -38195.987      0             -37699.535     -16157.516    
     16700   305.79644     -38221.571      0             -37716.588     -15450.859    
     16750   298.84482     -38195.459      0             -37701.956     -16365.471    
     16800   311.21734     -38238.55       0             -37724.615     -15104.801    
     16850   315.91273     -38228.664      0             -37706.976     -16807.761    
     16900   291.85434     -38191.494      0             -37709.535     -14618.155    
     16950   302.63447     -38201.818      0             -37702.057     -16722.183    
     17000   300.18384     -38196.95       0             -37701.236     -15747.467    
     17050   292.33448     -38181.063      0             -37698.311     -16826.522    
     17100   299.02731     -38203.312      0             -37709.508     -15923.544    
     17150   306.02879     -38209.213      0             -37703.847     -16392.613    
     17200   306.83784     -38211.976      0             -37705.274     -15501.496    
     17250   309.147       -38201.499      0             -37690.984     -16477.114    
     17300   302.67163     -38215.461      0             -37715.639     -16339.841    
     17350   308.9554      -38233.98       0             -37723.78      -15947.357    
     17400   301.40652     -38208.805      0             -37711.072     -16050.209    
     17450   291.97623     -38199.353      0             -37717.193     -15043.51     
     17500   295.31135     -38188.922      0             -37701.254     -16454.712    
     17550   290.30771     -38199.45       0             -37720.045     -15917.599    
     17600   282.0678      -38178.051      0             -37712.253     -16391.698    
     17650   287.56567     -38183.982      0             -37709.105     -15967.726    
     17700   297.56024     -38182.872      0             -37691.49      -17095.545    
     17750   299.85558     -38187.479      0             -37692.306     -14908.473    
     17800   304.48355     -38207.013      0             -37704.198     -16293.413    
     17850   291.99875     -38170.77       0             -37688.572     -14696.646    
     17900   313.01011     -38186.749      0             -37669.854     -16011.464    
     17950   303.34757     -38184.911      0             -37683.972     -14716.949    
     18000   301.11817     -38162.204      0             -37664.947     -16551.273    
     18050   303.48007     -38189.397      0             -37688.24      -15358.613    
     18100   296.06774     -38162.158      0             -37673.241     -16817.969    
     18150   278.72839     -38150.764      0             -37690.48      -15571.486    
     18200   307.85729     -38174.079      0             -37665.693     -17209.821    
     18250   306.27762     -38185.286      0             -37679.508     -16050.036    
     18300   289.26747     -38157.41       0             -37679.722     -16773.002    
     18350   310.69521     -38155.732      0             -37642.66      -15375.536    
     18400   296.65077     -38137.704      0             -37647.825     -15541.195    
     18450   303.94935     -38194.668      0             -37692.735     -15946.377    
     18500   305.15021     -38182.08       0             -37678.165     -16146.643    
     18550   291.11381     -38186.73       0             -37705.994     -16466.979    
     18600   305.26864     -38177.475      0             -37673.364     -15588.964    
     18650   295.08154     -38159.342      0             -37672.053     -16020.031    
     18700   307.60941     -38185.99       0             -37678.014     -15319.94     
     18750   299.33058     -38165.8        0             -37671.495     -16791.575    
     18800   310.35051     -38177.534      0             -37665.031     -15260.222    
     18850   303.02686     -38155.366      0             -37654.957     -16898.806    
     18900   295.50216     -38163.124      0             -37675.141     -14796.272    
     18950   289.718       -38146.061      0             -37667.63      -16482.544    
     19000   300.19251     -38133.816      0             -37638.088     -14516.968    
     19050   283.48458     -38113.2        0             -37645.063     -16741.56     
     19100   309.88486     -38140.531      0             -37628.797     -14483.77     
     19150   321.4079      -38176.273      0             -37645.51      -17375.783    
     19200   303.17526     -38138.612      0             -37637.958     -15046.432    
     19250   284.91924     -38097.611      0             -37627.104     -17217.574    
     19300   302.28771     -38146.908      0             -37647.719     -14987.256    
     19350   309.44578     -38140.968      0             -37629.959     -17153.929    
     19400   298.80286     -38143.186      0             -37649.752     -14706.611    
     19450   288.34406     -38136.209      0             -37660.046     -17056.89     
     19500   302.7676      -38150.588      0             -37650.607     -14734.811    
     19550   297.41952     -38119.691      0             -37628.542     -16310.09     
     19600   302.57131     -38140.778      0             -37641.122     -15020.173    
     19650   298.29061     -38149.869      0             -37657.282     -17560.027    
     19700   309.5586      -38148.567      0             -37637.371     -16284.512    
     19750   302.92026     -38151.12       0             -37650.887     -17825.61     
     19800   313.93453     -38163.427      0             -37645.005     -16368.048    
     19850   309.36958     -38158.063      0             -37647.18      -17404.253    
     19900   297.95288     -38136.101      0             -37644.071     -15802.327    
     19950   301.52673     -38144.608      0             -37646.676     -16551.888    
     20000   300.55756     -38171.235      0             -37674.904     -16717.926    
     20050   292.35377     -38150.427      0             -37667.644     -15851.151    
     20100   297.89335     -38170.177      0             -37678.246     -16618.882    
     20150   306.44282     -38196.853      0             -37690.803     -15794.269    
     20200   304.60595     -38173.887      0             -37670.871     -15896.701    
     20250   297.19702     -38153.398      0             -37662.616     -15911.174    
     20300   308.72057     -38163.144      0             -37653.333     -16541.507    
     20350   284.03377     -38146.209      0             -37677.164     -16038.125    
     20400   306.0292      -38188.727      0             -37683.36      -17122.716    
     20450   292.24016     -38154.849      0             -37672.253     -15408.934    
     20500   308.08888     -38183.707      0             -37674.939     -17140.91     
     20550   302.63199     -38175.821      0             -37676.064     -15932.593    
     20600   298.47722     -38178.978      0             -37686.082     -15969.384    
     20650   304.61225     -38186.404      0             -37683.377     -16156.412    
     20700   301.96698     -38152.385      0             -37653.726     -15761.077    
     20750   301.93566     -38171.959      0             -37673.352     -15558.9      
     20800   291.99204     -38169.451      0             -37687.264     -16820.148    
     20850   300.63212     -38162.472      0             -37666.018     -16337.041    
     20900   303.52625     -38196.654      0             -37695.42      -15921.55     
     20950   297.35588     -38198.903      0             -37707.859     -16211.443    
     21000   298.62119     -38181.892      0             -37688.758     -16343.627    
     21050   301.351       -38155.581      0             -37657.939     -16478.487    
     21100   300.62602     -38187.895      0             -37691.451     -15723.446    
     21150   299.67632     -38193.355      0             -37698.478     -16826.343    
     21200   310.89145     -38209.047      0             -37695.651     -15359.658    
     21250   287.33728     -38199.224      0             -37724.724     -15871.985    
     21300   296.55963     -38186.728      0             -37696.999     -14962.721    
     21350   306.17684     -38219.135      0             -37713.524     -16048.21     
     21400   303.30526     -38196.861      0             -37695.992     -14871.583    
     21450   307.92113     -38195.27       0             -37686.778     -15806.407    
     21500   297.08058     -38217.1        0             -37726.51      -16357.759    
     21550   297.29456     -38188.7        0             -37697.757     -15908.245    
     21600   307.47713     -38232.46       0             -37724.702     -17085.888    
     21650   302.74853     -38215.135      0             -37715.185     -16179.945    
     21700   307.64859     -38212.297      0             -37704.255     -16141.614    
     21750   303.55364     -38196.32       0             -37695.041     -15505.203    
     21800   313.79406     -38248.176      0             -37729.986     -15703.06     
     21850   308.40399     -38228.897      0             -37719.608     -16054.021    
     21900   294.99169     -38209.685      0             -37722.545     -15127.462    
     21950   310.68219     -38225.99       0             -37712.939     -16069.42     
     22000   304.50557     -38220.438      0             -37717.587     -15600.76     
     22050   295.38833     -38196.64       0             -37708.845     -16017.271    
     22100   289.46422     -38205.676      0             -37727.664     -16100.801    
     22150   307.1921      -38252.202      0             -37744.914     -17450.135    
     22200   300.33914     -38220.983      0             -37725.012     -15959.555    
     22250   285.94398     -38187.108      0             -37714.909     -16372.115    
     22300   286.52054     -38195.721      0             -37722.57      -14679.357    
     22350   300.25588     -38217.266      0             -37721.433     -16531.484    
     22400   300.98102     -38199.684      0             -37702.654     -15000.207    
     22450   312.34823     -38235.007      0             -37719.204     -16495.881    
     22500   297.46873     -38222.833      0             -37731.602     -14926.694    
     22550   301.22085     -38244.759      0             -37747.333     -16876.274    
     22600   310.92437     -38245.792      0             -37732.342     -16118.036    
     22650   295.07479     -38197.627      0             -37710.349     -16206.806    
     22700   280.90953     -38187.512      0             -37723.627     -15576.839    
     22750   294.36093     -38186.592      0             -37700.493     -15997.072    
     22800   301.78055     -38220.487      0             -37722.136     -15904.587    
     22850   310.16207     -38239.379      0             -37727.187     -16270.052    
     22900   308.88983     -38243.458      0             -37733.367     -16135.644    
     22950   286.50966     -38197.47       0             -37724.337     -15973.079    
     23000   305.94918     -38259.22       0             -37753.985     -16916.878    
     23050   296.04372     -38200.459      0             -37711.581     -16003.283    
     23100   293.62008     -38215.255      0             -37730.38      -15635.533    
     23150   296.04226     -38204.092      0             -37715.217     -16671.438    
     23200   288.87171     -38206.1        0             -37729.066     -15337.345    
     23250   292.17213     -38222.998      0             -37740.514     -16796.866    
     23300   298.28738     -38215.952      0             -37723.369     -15697.039    
     23350   304.41055     -38226.859      0             -37724.165     -17640.356    
     23400   292.90266     -38191.989      0             -37708.298     -16125.963    
     23450   289.30314     -38186.837      0             -37709.091     -16414.777    
     23500   301.7222      -38200.123      0             -37701.868     -15826.689    
     23550   295.6391      -38195.688      0             -37707.478     -16664.01     
     23600   293.81461     -38223.358      0             -37738.162     -15902.963    
     23650   303.56445     -38202.69       0             -37701.393     -16937.843    
     23700   296.53454     -38194.424      0             -37704.736     -15195.956    
     23750   289.77535     -38184.917      0             -37706.391     -17222.266    
     23800   298.8144      -38200.628      0             -37707.175     -15569.67     
     23850   307.09835     -38186.213      0             -37679.081     -17139.065    
     23900   322.35242     -38246.542      0             -37714.22      -15724.267    
     23950   310.91915     -38223.76       0             -37710.318     -16213.12     
     24000   296.01435     -38210.371      0             -37721.542     -15880.352    
     24050   306.6568      -38222.825      0             -37716.422     -16329.738    
     24100   298.84155     -38222.241      0             -37728.743     -16163.083    
     24150   294.43523     -38220.842      0             -37734.621     -16779.757    
     24200   294.91545     -38226.351      0             -37739.336     -16020.199    
     24250   304.93947     -38214.198      0             -37710.63      -16081.702    
     24300   294.00511     -38195.025      0             -37709.514     -15722.057    
     24350   293.7316      -38184.713      0             -37699.653     -15747.956    
     24400   292.54962     -38203.422      0             -37720.315     -16414.727    
     24450   312.1544      -38227.346      0             -37711.864     -15996.753    
     24500   294.24072     -38216.606      0             -37730.706     -16283.367    
     24550   321.33047     -38235.369      0             -37704.734     -14953.724    
     24600   299.9051      -38237.637      0             -37742.383     -16838.507    
     24650   297.39797     -38208.101      0             -37716.987     -14681.636    
     24700   300.1505      -38208.053      0             -37712.394     -16630.048    
     24750   294.85257     -38220.575      0             -37733.665     -15472.639    
     24800   292.28882     -38208.423      0             -37725.746     -16779.717    
     24850   300.51926     -38182.632      0             -37686.364     -14431.402    
     24900   302.40793     -38194.648      0             -37695.261     -17615.307    
     24950   288.29249     -38186.239      0             -37710.161     -14579.167    
     25000   289.69493     -38163.349      0             -37684.956     -17623.397    
     25050   307.19804     -38195.096      0             -37687.798     -14763.047    
     25100   302.59377     -38191.054      0             -37691.36      -17769.591    
     25150   291.69653     -38195.06       0             -37713.362     -14711.391    
     25200   314.62688     -38224.774      0             -37705.209     -18041.904    
     25250   297.68838     -38200.581      0             -37708.987     -13956.239    
     25300   311.06576     -38217.329      0             -37703.645     -17968.865    
     25350   302.96485     -38227.537      0             -37727.231     -13548.085    
     25400   309.04666     -38205.784      0             -37695.434     -18023.03     
     25450   297.03379     -38214.73       0             -37724.217     -13184.618    
     25500   296.5502      -38220.748      0             -37731.034     -18233.052    
     25550   287.61901     -38211.789      0             -37736.824     -13717.279    
     25600   291.30673     -38208.1        0             -37727.045     -17609.344    
     25650   298.33861     -38233.127      0             -37740.46      -13909.203    
     25700   309.79634     -38221.569      0             -37709.981     -17593.559    
     25750   296.9543      -38220.908      0             -37730.527     -13283.201    
     25800   293.51816     -38226.779      0             -37742.072     -17154.533    
     25850   291.79363     -38192.938      0             -37711.079     -13377.777    
     25900   306.16498     -38228.749      0             -37723.158     -16631.001    
     25950   307.61101     -38227.529      0             -37719.55      -14153.27     
     26000   309.74016     -38216.133      0             -37704.638     -16552.104    
     26050   305.39046     -38222.877      0             -37718.564     -14768.795    
     26100   299.31036     -38241.906      0             -37747.634     -16723.431    
     26150   303.91639     -38216.711      0             -37714.833     -15429.81     
     26200   286.31745     -38206.346      0             -37733.53      -16010.847    
     26250   290.50842     -38200.313      0             -37720.577     -16097.395    
     26300   287.94542     -38214.612      0             -37739.107     -15215.164    
     26350   314.78694     -38242.762      0             -37722.933     -16762.526    
     26400   299.71859     -38228.253      0             -37733.308     -14881.082    
     26450   311.14062     -38215.872      0             -37702.064     -17188.624    
     26500   294.20784     -38191.404      0             -37705.559     -13888.158    
     26550   294.67751     -38196.405      0             -37709.784     -17100.225    
     26600   297.74784     -38178.803      0             -37687.111     -13974.503    
     26650   283.72379     -38171.479      0             -37702.947     -18516.499    
     26700   303.95292     -38178.168      0             -37676.229     -14959.175    
     26750   303.1462      -38167.687      0             -37667.081     -18272.49     
     26800   302.70272     -38191.757      0             -37691.884     -14432.868    
     26850   297.55106     -38187.729      0             -37696.362     -17651.16     
     26900   288.55138     -38137.155      0             -37660.65      -13662.722    
     26950   298.52661     -38176.087      0             -37683.11      -18370.74     
     27000   293.581       -38173.801      0             -37688.99      -14197.795    
     27050   307.99266     -38171.6        0             -37662.99      -18094.631    
     27100   293.85349     -38155.328      0             -37670.068     -14876.445    
     27150   301.09239     -38157.843      0             -37660.628     -17901.29     
     27200   280.15962     -38124.923      0             -37662.276     -14128.768    
     27250   295.68372     -38144.698      0             -37656.416     -16925.739    
     27300   301.1589      -38161.247      0             -37663.923     -15333.031    
     27350   296.96768     -38140.934      0             -37650.531     -16659.186    
     27400   292.5216      -38139.966      0             -37656.905     -15067.253    
     27450   307.25662     -38169.404      0             -37662.01      -16395.314    
     27500   306.61196     -38190.967      0             -37684.638     -16248.957    
     27550   305.08419     -38186.416      0             -37682.61      -16499.817    
     27600   301.22535     -38179.578      0             -37682.144     -16342.43     
     27650   295.41565     -38170.724      0             -37682.884     -15794.329    
     27700   302.69593     -38201.324      0             -37701.461     -15665.515    
     27750   309.18652     -38197.112      0             -37686.531     -15612.365    
     27800   299.13133     -38198.127      0             -37704.151     -16032.087    
     27850   311.09016     -38203.453      0             -37689.729     -16553.19     
     27900   301.09378     -38213.49       0             -37716.274     -17133.595    
     27950   293.18411     -38177.151      0             -37692.996     -15754.992    
     28000   306.06314     -38192.236      0             -37686.813     -16856.371    
     28050   292.69496     -38170.908      0             -37687.56      -15672.49     
     28100   295.05948     -38198.178      0             -37710.926     -17177.005    
     28150   303.70055     -38182.15       0             -37680.629     -14826.356    
     28200   302.63487     -38199.382      0             -37699.621     -17264.714    
     28250   296.93227     -38175.785      0             -37685.44      -14513.971    
     28300   301.13478     -38206.52       0             -37709.236     -18092.245    
     28350   300.91194     -38172.891      0             -37675.974     -14829.621    
     28400   289.29326     -38161.47       0             -37683.74      -18138.853    
     28450   306.38338     -38199.2        0             -37693.248     -14397.509    
     28500   308.94203     -38192.724      0             -37682.547     -17328.495    
     28550   312.75177     -38207.465      0             -37690.997     -15020.417    
     28600   312.15953     -38215.196      0             -37699.705     -16708.115    
     28650   291.77559     -38192.909      0             -37711.08      -15973.455    
     28700   311.62408     -38206.885      0             -37692.279     -17022.243    
     28750   296.83305     -38198.663      0             -37708.482     -15753.041    
     28800   309.18034     -38211.947      0             -37701.376     -16192.946    
     28850   300.82737     -38208.639      0             -37711.862     -16008.695    
     28900   304.72089     -38237.583      0             -37734.376     -16291.938    
     28950   304.03692     -38243.727      0             -37741.65      -16542.364    
     29000   307.40626     -38231.001      0             -37723.36      -15438.571    
     29050   296.22728     -38217.107      0             -37727.926     -16104.708    
     29100   302.98977     -38216.065      0             -37715.717     -15140.899    
     29150   295.06869     -38187.735      0             -37700.468     -15462.175    
     29200   302.24562     -38190.098      0             -37690.979     -15095.05     
     29250   309.99116     -38227.971      0             -37716.062     -17131.752    
     29300   300.8171      -38228.357      0             -37731.597     -15174.065    
     29350   309.88701     -38228.459      0             -37716.721     -17063.133    
     29400   301.88799     -38224.908      0             -37726.38      -14527.263    
     29450   310.77635     -38250.986      0             -37737.779     -17319.483    
     29500   303.43158     -38240.343      0             -37739.265     -15100.9      
     29550   291.01764     -38205.21       0             -37724.633     -15802.725    
     29600   311.04164     -38247.291      0             -37733.647     -14850.88     
     29650   301.17067     -38224.949      0             -37727.606     -15242.859    
     29700   290.62849     -38218.724      0             -37738.789     -14589.708    
     29750   300.10911     -38238.868      0             -37743.277     -15722.988    
     29800   293.26479     -38212.237      0             -37727.949     -14668.038    
     29850   316.00576     -38228.208      0             -37706.366     -15696.502    
     29900   297.77955     -38241.581      0             -37749.838     -15481.228    
     29950   303.50293     -38271.426      0             -37770.23      -17095.627    
     30000   300.78225     -38231.199      0             -37734.497     -15527.575    
     30050   293.96306     -38218.618      0             -37733.176     -15738.795    
     30100   295.93945     -38253.107      0             -37764.402     -14950.11     
     30150   302.4739      -38236.502      0             -37737.006     -15599.193    
     30200   286.6664      -38239.3        0             -37765.908     -16003.517    
     30250   292.02356     -38227.786      0             -37745.547     -15462.259    
     30300   309.16054     -38256.744      0             -37746.206     -16466.355    
     30350   312.50404     -38244.639      0             -37728.579     -14483.198    
     30400   288.73919     -38249.357      0             -37772.542     -16159.067    
     30450   303.7969      -38229.986      0             -37728.305     -14292.832    
     30500   301.4955      -38231.896      0             -37734.016     -16084.861    
     30550   298.24758     -38242.031      0             -37749.514     -14515.882    
     30600   290.56782     -38217.993      0             -37738.158     -16567.559    
     30650   303.24116     -38243.929      0             -37743.166     -14263.993    
     30700   308.009       -38262.038      0             -37753.402     -17759.598    
     30750   300.66989     -38237.112      0             -37740.596     -15286.134    
     30800   304.09267     -38240.547      0             -37738.378     -17359.859    
     30850   294.61924     -38220.999      0             -37734.474     -14652.303    
     30900   302.55305     -38247.75       0             -37748.123     -17026.388    
     30950   295.42608     -38231.334      0             -37743.476     -16116.463    
     31000   298.52548     -38230.993      0             -37738.018     -17100.652    
     31050   301.55118     -38214.211      0             -37716.239     -15558.338    
     31100   302.67178     -38201.807      0             -37701.984     -16417.759    
     31150   291.17881     -38219.799      0             -37738.956     -14938.122    
     31200   314.89996     -38269.954      0             -37749.938     -16854.213    
     31250   302.34252     -38259.854      0             -37760.575     -14933.962    
     31300   292.36568     -38242.752      0             -37759.949     -16822.352    
     31350   285.04501     -38223.125      0             -37752.41      -15112.689    
     31400   282.15156     -38223.039      0             -37757.103     -17603.602    
     31450   298.35014     -38221.962      0             -37729.276     -15416.18     
     31500   290.05958     -38181.987      0             -37702.992     -17327.712    
     31550   292.23286     -38205.321      0             -37722.737     -15201.373    
     31600   297.73968     -38203.802      0             -37712.124     -17611.687    
     31650   296.29761     -38193.521      0             -37704.225     -15993.789    
     31700   297.10349     -38195.339      0             -37704.712     -17196.807    
     31750   300.96588     -38174.084      0             -37677.079     -16102.251    
     31800   283.80764     -38171.581      0             -37702.909     -16306.52     
     31850   315.35737     -38222.668      0             -37701.897     -16767.25     
     31900   295.12071     -38162.349      0             -37674.996     -16379.829    
     31950   305.5751      -38188.783      0             -37684.166     -15957.891    
     32000   319.9778      -38235.466      0             -37707.065     -17312.429    
     32050   300.51946     -38216.291      0             -37720.022     -16210.648    
     32100   296.4933      -38195.263      0             -37705.644     -16910.834    
     32150   302.74935     -38211.86       0             -37711.909     -16278.457    
     32200   308.63071     -38228.991      0             -37719.328     -17042.693    
     32250   302.95471     -38178.925      0             -37678.635     -16313.64     
     32300   301.78832     -38205.355      0             -37706.991     -17451.578    
     32350   302.73716     -38172.348      0             -37672.417     -15953.837    
     32400   301.7003      -38204.844      0             -37706.626     -17319.881    
     32450   314.03718     -38204.166      0             -37685.575     -16454.451    
     32500   302.30405     -38210.048      0             -37710.833     -16871.028    
     32550   308.80118     -38218.165      0             -37708.22      -16635.919    
     32600   309.80694     -38210.127      0             -37698.521     -16031.669    
     32650   295.37437     -38183.732      0             -37695.96      -16711.947    
     32700   311.16795     -38205.399      0             -37691.546     -15786.025    
     32750   298.015       -38201.335      0             -37709.203     -16738.744    
     32800   298.56656     -38184.444      0             -37691.401     -14248.958    
     32850   291.88735     -38176.931      0             -37694.917     -16790.716    
     32900   304.33736     -38221.281      0             -37718.708     -13635.018    
     32950   302.01391     -38206.045      0             -37707.309     -16990.038    
     33000   302.20081     -38203.863      0             -37704.818     -13512.154    
     33050   294.84033     -38193.621      0             -37706.731     -16611.786    
     33100   293.15682     -38184.944      0             -37700.834     -14018.571    
     33150   297.56609     -38190.382      0             -37698.991     -17916.579    
     33200   302.84358     -38194.881      0             -37694.775     -14136.789    
     33250   297.03738     -38195.309      0             -37704.791     -16296.995    
     33300   305.95222     -38195.061      0             -37689.822     -14837.738    
     33350   317.35285     -38213.198      0             -37689.131     -15854.052    
     33400   303.49042     -38206.911      0             -37705.736     -14988.548    
     33450   299.10878     -38190.464      0             -37696.525     -15835.247    
     33500   300.8498      -38192.674      0             -37695.86      -14376.195    
     33550   308.45647     -38226.261      0             -37716.886     -15423.625    
     33600   299.54427     -38205.821      0             -37711.163     -15176.237    
     33650   295.88235     -38208.804      0             -37720.193     -15873.555    
     33700   305.62168     -38215.899      0             -37711.205     -15204.759    
     33750   294.27343     -38192.273      0             -37706.319     -15052.837    
     33800   306.03317     -38232.461      0             -37727.088     -15960.518    
     33850   288.00673     -38188.761      0             -37713.156     -15999.938    
     33900   303.27868     -38190.407      0             -37689.583     -16014.856    
     33950   288.58923     -38192.531      0             -37715.964     -15764.281    
     34000   279.93932     -38186.452      0             -37724.169     -15472.139    
     34050   305.37967     -38198.411      0             -37694.117     -15222.282    
     34100   297.59213     -38185.683      0             -37694.249     -16061.343    
     34150   290.79073     -38184.012      0             -37703.81      -16017.182    
     34200   286.62505     -38173.739      0             -37700.415     -15514.434    
     34250   289.83835     -38164.691      0             -37686.061     -16036.953    
     34300   314.90713     -38208.07       0             -37688.042     -15250.701    
     34350   289.16377     -38175.177      0             -37697.661     -15466.516    
     34400   307.40261     -38208.509      0             -37700.874     -16155.756    
     34450   296.28598     -38188.151      0             -37698.874     -15860.173    
     34500   305.61911     -38201.092      0             -37696.402     -16960.241    
     34550   283.77147     -38168.247      0             -37699.636     -16325.536    
     34600   300.70009     -38187.62       0             -37691.053     -16595.781    
     34650   314.37553     -38204.547      0             -37685.397     -15509.545    
     34700   298.27894     -38200.962      0             -37708.393     -15392.932    
     34750   301.14543     -38219.32       0             -37722.018     -16301.388    
     34800   307.93595     -38205.785      0             -37697.269     -15948.63     
     34850   301.94776     -38184.03       0             -37685.403     -16251.143    
     34900   302.39399     -38186.193      0             -37686.829     -16181.221    
     34950   300.10902     -38200.219      0             -37704.628     -16204.066    
     35000   302.14521     -38219.12       0             -37720.167     -16381.516    
     35050   300.77784     -38222.115      0             -37725.42      -16288.672    
     35100   305.90126     -38205.967      0             -37700.811     -16570.952    
     35150   294.28137     -38206.913      0             -37720.946     -15851.464    
     35200   299.49902     -38196.39       0             -37701.807     -16103.145    
     35250   291.79775     -38207.65       0             -37725.785     -16343.945    
     35300   300.25983     -38218.855      0             -37723.015     -16355.022    
     35350   292.15803     -38210.901      0             -37728.441     -16581.546    
     35400   300.03994     -38197.641      0             -37702.165     -16610.969    
     35450   289.53255     -38185.311      0             -37707.186     -17672.864    
     35500   288.11561     -38160.791      0             -37685.006     -16265.271    
     35550   299.56049     -38192.075      0             -37697.39      -16955.791    
     35600   298.78267     -38206.507      0             -37713.107     -15952.46     
     35650   299.96767     -38194.647      0             -37699.29      -16750.096    
     35700   303.22274     -38172.739      0             -37672.006     -15616.246    
     35750   294.0808      -38173.715      0             -37688.079     -16480.828    
     35800   290.9128      -38170.524      0             -37690.12      -16719.436    
     35850   305.82474     -38195.804      0             -37690.775     -16052.171    
     35900   301.41485     -38179.933      0             -37682.186     -15818.739    
     35950   298.34307     -38194.619      0             -37701.945     -16035.834    
     36000   304.1642      -38206.879      0             -37704.592     -16214.756    
     36050   313.91089     -38227.744      0             -37709.362     -16230.975    
     36100   303.8407      -38228.275      0             -37726.522     -16806.493    
     36150   303.53519     -38238.825      0             -37737.577     -15984.151    
     36200   305.70298     -38223.039      0             -37718.211     -17058.515    
     36250   294.49984     -38224.105      0             -37737.777     -15847.349    
     36300   279.51124     -38204.318      0             -37742.742     -17320.911    
     36350   293.13976     -38219.421      0             -37735.339     -16180.299    
     36400   309.46239     -38221.795      0             -37710.758     -17086.493    
     36450   298.76035     -38202.599      0             -37709.235     -15584.489    
     36500   291.89723     -38196.395      0             -37714.365     -16543.614    
     36550   299.26798     -38220.656      0             -37726.455     -14709.669    
     36600   306.82886     -38221.408      0             -37714.721     -17421.588    
     36650   296.01416     -38225.777      0             -37736.948     -14495.239    
     36700   301.40366     -38214.372      0             -37716.644     -16879.949    
     36750   306.91282     -38220.129      0             -37713.303     -14720.781    
     36800   294.91731     -38216.666      0             -37729.648     -16544.005    
     36850   299.62019     -38222.171      0             -37727.387     -14994.739    
     36900   306.5848      -38243.467      0             -37737.183     -16846.937    
     36950   305.98495     -38224.214      0             -37718.92      -15277.125    
     37000   298.07836     -38206.526      0             -37714.289     -15711.025    
     37050   288.08232     -38230.271      0             -37754.541     -15778.615    
     37100   300.81381     -38209.67       0             -37712.916     -16556.024    
     37150   311.20748     -38233.977      0             -37720.059     -16585.923    
     37200   304.18028     -38238.697      0             -37736.383     -15101.144    
     37250   305.85256     -38234.367      0             -37729.291     -17209.883    
     37300   284.37511     -38190.467      0             -37720.859     -14335.25     
     37350   304.73494     -38209.019      0             -37705.789     -17828.078    
     37400   305.65561     -38230.004      0             -37725.254     -14154.67     
     37450   306.13313     -38242.371      0             -37736.832     -17630.717    
     37500   302.0101      -38227.535      0             -37728.805     -14197.888    
     37550   310.15312     -38235.899      0             -37723.721     -17334.373    
     37600   296.71784     -38207.768      0             -37717.778     -14041.465    
     37650   285.61157     -38202.51       0             -37730.86      -17167.082    
     37700   302.04154     -38240.372      0             -37741.59      -14344.814    
     37750   307.12932     -38249.755      0             -37742.571     -17641.159    
     37800   296.40206     -38246.341      0             -37756.872     -14486.793    
     37850   289.6611      -38206.403      0             -37728.066     -16402.333    
     37900   295.55135     -38220.581      0             -37732.517     -15433.401    
     37950   298.87106     -38206.371      0             -37712.824     -17098.231    
     38000   295.67054     -38212.254      0             -37723.993     -16162.699    
     38050   300.33347     -38224.516      0             -37728.554     -16948.029    
     38100   308.48464     -38233.144      0             -37723.722     -16247.771    
     38150   304.33621     -38221.765      0             -37719.194     -16105.383    
     38200   294.73972     -38197.056      0             -37710.332     -15225.036    
     38250   298.69785     -38203.57       0             -37710.31      -15726.815    
     38300   304.42891     -38211.622      0             -37708.897     -17308.962    
     38350   299.81804     -38224.365      0             -37729.255     -16129.246    
     38400   301.23526     -38231.951      0             -37734.501     -17396.059    
     38450   301.04151     -38219.287      0             -37722.157     -15169.551    
     38500   300.97121     -38225.036      0             -37728.022     -16797.528    
     38550   319.9838      -38251.23       0             -37722.819     -15688.917    
     38600   293.17872     -38224.252      0             -37740.106     -16236.874    
     38650   301.11387     -38217.449      0             -37720.199     -16040.492    
     38700   283.76659     -38203.689      0             -37735.085     -16919.182    
     38750   321.16869     -38232.444      0             -37702.076     -15396.239    
     38800   289.99338     -38216.058      0             -37737.172     -17137.406    
     38850   312.51865     -38239.125      0             -37723.042     -15709.179    
     38900   302.156       -38219.047      0             -37720.076     -17063.621    
     38950   286.84742     -38210.271      0             -37736.58      -14763.195    
     39000   302.488       -38238.829      0             -37739.31      -16794.853    
     39050   301.04692     -38232.199      0             -37735.059     -14499.827    
     39100   308.91643     -38258.872      0             -37748.737     -17147.693    
     39150   294.81406     -38221.042      0             -37734.195     -14532.071    
     39200   294.18039     -38235.252      0             -37749.452     -17490.733    
     39250   303.56312     -38253.006      0             -37751.712     -15053.833    
     39300   300.37839     -38233.043      0             -37737.008     -17249.764    
     39350   313.05374     -38263.509      0             -37746.542     -15970.81     
     39400   298.4412      -38228.629      0             -37735.793     -17111.803    
     39450   295.94984     -38215.088      0             -37726.365     -15429.751    
     39500   311.30731     -38243.067      0             -37728.984     -15874.339    
     39550   304.85913     -38253.051      0             -37749.616     -15653.982    
     39600   311.5301      -38258.587      0             -37744.136     -16076.461    
     39650   289.55879     -38228.531      0             -37750.363     -15817.587    
     39700   286.64709     -38184.228      0             -37710.868     -15019.602    
     39750   291.02519     -38211.16       0             -37730.57      -16017.344    
     39800   293.77381     -38204.349      0             -37719.22      -15073.876    
     39850   303.92592     -38244.018      0             -37742.125     -16076.008    
     39900   292.27869     -38213.661      0             -37731.001     -15858.902    
     39950   300.00949     -38209.142      0             -37713.716     -16545.953    
     40000   300.06125     -38225.257      0             -37729.746     -15410.525    
     40050   296.12952     -38228.798      0             -37739.779     -16385.782    
     40100   303.70973     -38231.123      0             -37729.586     -14734.435    
     40150   315.44425     -38262.362      0             -37741.448     -16326.369    
     40200   295.57766     -38216.432      0             -37728.324     -14238.483    
     40250   298.65637     -38236.445      0             -37743.253     -17137.258    
     40300   301.09329     -38251.73       0             -37754.514     -15132.361    
     40350   296.57159     -38245.833      0             -37756.084     -17952.55     
     40400   301.48468     -38231.528      0             -37733.666     -14601.944    
     40450   290.68984     -38211.643      0             -37731.607     -18287.333    
     40500   300.79676     -38232.711      0             -37735.984     -13785.271    
     40550   290.4855      -38203.842      0             -37724.143     -17966.437    
     40600   317.25016     -38259.126      0             -37735.229     -14106.908    
     40650   319.20894     -38268.45       0             -37741.319     -16962.942    
     40700   296.44034     -38226.731      0             -37737.199     -13163.131    
     40750   302.91752     -38226.416      0             -37726.188     -17138.778    
     40800   296.99348     -38227.35       0             -37736.904     -13640.496    
     40850   310.9841      -38237.827      0             -37724.277     -17249.202    
     40900   298.21019     -38240.258      0             -37747.803     -14311.725    
     40950   284.64804     -38215.922      0             -37745.863     -17719.476    
     41000   298.04857     -38217.726      0             -37725.538     -15244.917    
     41050   293.1879      -38217.628      0             -37733.466     -16643.578    
     41100   303.98777     -38218.235      0             -37716.239     -15560.839    
     41150   294.08994     -38207.096      0             -37721.445     -16500.67     
     41200   297.97037     -38209.799      0             -37717.74      -16142.593    
     41250   299.64618     -38179.536      0             -37684.71      -16061.968    
     41300   302.79837     -38212.056      0             -37712.024     -16255.948    
     41350   306.4487      -38216.042      0             -37709.982     -16865.422    
     41400   306.74973     -38219.246      0             -37712.689     -15469.432    
     41450   314.36497     -38261.874      0             -37742.742     -16173.665    
     41500   297.58966     -38196.286      0             -37704.856     -15946.695    
     41550   311.95495     -38214.538      0             -37699.385     -15745.706    
     41600   293.0269      -38199.721      0             -37715.826     -17184.925    
     41650   293.54307     -38181.684      0             -37696.937     -14868.482    
     41700   290.40892     -38177.875      0             -37698.302     -17250.016    
     41750   301.29684     -38209.35       0             -37711.798     -14601.687    
     41800   299.77671     -38207.471      0             -37712.429     -17884.421    
     41850   293.4539      -38196.217      0             -37711.617     -14297.553    
     41900   309.18365     -38213.468      0             -37702.892     -17600.739    
     41950   305.68601     -38208.638      0             -37703.838     -14714.394    
     42000   295.72446     -38194.807      0             -37706.457     -16931.579    
     42050   296.57269     -38212.448      0             -37722.697     -14318.837    
     42100   303.39814     -38193.752      0             -37692.73      -16999.259    
     42150   306.13188     -38230.671      0             -37725.135     -14684.746    
     42200   300.70058     -38216.228      0             -37719.66      -16976.314    
     42250   304.11446     -38200.961      0             -37698.756     -14289.787    
     42300   301.9154      -38227.867      0             -37729.293     -17056.43     
     42350   287.97425     -38184.91       0             -37709.358     -14990.991    
     42400   287.21884     -38196.684      0             -37722.38      -17066.208    
     42450   304.22105     -38227.904      0             -37725.522     -15999.359    
     42500   298.4255      -38216.34       0             -37723.529     -16861.874    
     42550   307.61537     -38213.201      0             -37705.215     -15548.416    
     42600   301.12646     -38184.056      0             -37686.785     -16294.224    
     42650   313.33242     -38231.858      0             -37714.431     -16833.66     
     42700   296.14264     -38181.338      0             -37692.297     -15636.339    
     42750   302.8079      -38200.325      0             -37700.277     -16938.952    
[...]
    189600   294.88706     -38208.83       0             -37721.862     -15599.157    
    189650   302.78631     -38219.747      0             -37719.735     -16135.912    
    189700   304.83658     -38224.719      0             -37721.321     -15695.75     
    189750   306.29776     -38262.009      0             -37756.198     -16177.844    
    189800   305.96499     -38257.871      0             -37752.61      -15799.112    
    189850   305.07489     -38248.878      0             -37745.087     -15740.17     
    189900   300.85004     -38245.657      0             -37748.843     -15803.546    
    189950   293.00708     -38221.525      0             -37737.662     -15980.095    
    190000   291.66258     -38229.85       0             -37748.207     -15400.895    
    190050   306.19012     -38236.436      0             -37730.803     -14864.498    
    190100   310.72885     -38250.608      0             -37737.48      -16768.631    
    190150   310.12438     -38253.529      0             -37741.399     -15484.016    
    190200   301.36103     -38240.012      0             -37742.354     -17007.645    
    190250   286.45867     -38200.158      0             -37727.109     -15643.418    
    190300   297.78603     -38246.034      0             -37754.279     -17145.716    
    190350   294.3245      -38241.259      0             -37755.221     -16239.63     
    190400   299.71135     -38221.32       0             -37726.386     -15498.475    
    190450   296.99033     -38240.213      0             -37749.773     -15324.351    
    190500   298.20247     -38236.642      0             -37744.2       -15035.164    
    190550   310.33979     -38269.867      0             -37757.382     -15976.78     
    190600   290.47145     -38205.706      0             -37726.03      -14983.501    
    190650   302.06341     -38233.279      0             -37734.461     -15606.215    
    190700   303.87915     -38241.359      0             -37739.542     -15623.244    
    190750   315.59659     -38260.69       0             -37739.523     -15108.574    
    190800   296.65796     -38228.649      0             -37738.757     -16220.968    
    190850   314.00291     -38295.514      0             -37776.98      -15903.008    
    190900   303.72632     -38263.158      0             -37761.593     -16520.773    
    190950   301.36033     -38240.99       0             -37743.332     -16390.771    
    191000   309.11061     -38265.153      0             -37754.697     -16409.443    
    191050   305.40601     -38257.731      0             -37753.393     -15949.408    
    191100   312.98937     -38266.229      0             -37749.368     -16319.618    
    191150   301.93773     -38251.449      0             -37752.838     -15667.692    
    191200   306.06742     -38287.633      0             -37782.203     -16460.522    
    191250   294.45895     -38261.095      0             -37774.834     -15783.247    
    191300   289.23765     -38258.609      0             -37780.971     -16257.106    
    191350   296.57793     -38259.155      0             -37769.395     -15540.673    
    191400   295.41445     -38243.524      0             -37755.686     -15575.452    
    191450   308.19402     -38268.881      0             -37759.939     -15697.854    
    191500   297.66861     -38243.537      0             -37751.977     -16166.898    
    191550   305.60585     -38272.628      0             -37767.96      -16632.509    
    191600   294.45366     -38261.165      0             -37774.913     -15857.151    
    191650   297.14387     -38266.702      0             -37776.008     -16656.176    
    191700   300.71275     -38260.923      0             -37764.335     -14463.139    
    191750   299.29789     -38237.078      0             -37742.827     -16690.02     
    191800   299.19755     -38247.027      0             -37752.942     -14813.668    
    191850   295.22021     -38210.681      0             -37723.163     -16449.897    
    191900   308.47202     -38262.075      0             -37752.674     -15017.904    
    191950   308.50395     -38260.951      0             -37751.497     -17308.39     
    192000   303.19482     -38257.604      0             -37756.918     -14547.243    
    192050   303.16107     -38254.14       0             -37753.509     -17827.551    
    192100   297.7553      -38249.241      0             -37757.538     -14836.253    
    192150   291.25514     -38249.277      0             -37768.307     -18856.32     
    192200   298.96542     -38264.375      0             -37770.673     -14673.617    
    192250   292.70274     -38211.679      0             -37728.319     -18386.837    
    192300   290.31943     -38214.452      0             -37735.028     -14462.26     
    192350   295.60437     -38198.831      0             -37710.679     -17962.193    
    192400   293.59341     -38205.789      0             -37720.958     -13985.332    
    192450   306.14461     -38244.99       0             -37739.433     -18105.684    
    192500   299.25389     -38213.458      0             -37719.28      -13815.797    
    192550   294.17041     -38211.016      0             -37725.232     -17682.957    
    192600   304.89319     -38239.502      0             -37736.011     -15867.978    
    192650   304.67953     -38250.367      0             -37747.229     -16299.733    
    192700   300.30567     -38219.735      0             -37723.82      -15238.5      
    192750   314.55086     -38246.472      0             -37727.033     -16742.701    
    192800   314.40559     -38279.195      0             -37759.996     -15928.198    
    192850   301.0431      -38260.466      0             -37763.332     -16659.877    
    192900   289.39151     -38228.03       0             -37750.138     -15661.646    
    192950   310.44334     -38260.482      0             -37747.826     -16309.694    
    193000   300.55395     -38247.237      0             -37750.911     -16745.55     
    193050   295.20552     -38247.525      0             -37760.032     -15687.666    
    193100   316.6391      -38276.699      0             -37753.811     -16219.706    
    193150   292.71123     -38270.593      0             -37787.219     -15854.508    
    193200   303.63228     -38292.708      0             -37791.299     -16456.225    
    193250   302.61258     -38255.02       0             -37755.295     -15558.212    
    193300   307.43816     -38261.348      0             -37753.654     -16366.944    
    193350   302.9092      -38267.432      0             -37767.217     -15477.29     
    193400   294.8586      -38258.447      0             -37771.527     -16376.773    
    193450   279.76193     -38233.164      0             -37771.174     -15097.023    
    193500   291.14401     -38251.031      0             -37770.245     -16654.461    
    193550   299.9486      -38249.96       0             -37754.634     -15051.254    
    193600   312.56101     -38266.191      0             -37750.038     -16632.287    
    193650   289.44838     -38257.387      0             -37779.4       -15509.74     
    193700   295.83853     -38225.932      0             -37737.393     -17144.267    
    193750   297.0915      -38262.43       0             -37771.823     -15823.56     
    193800   282.49376     -38208.034      0             -37741.533     -16814.009    
    193850   312.75216     -38270.459      0             -37753.989     -14981.932    
    193900   300.56393     -38250.489      0             -37754.147     -17177.784    
    193950   310.91259     -38269.92       0             -37756.489     -14776.967    
    194000   295.58707     -38244.877      0             -37756.754     -16842.817    
    194050   288.26865     -38259.891      0             -37783.853     -14530.346    
    194100   306.11084     -38263.666      0             -37758.164     -17620.001    
    194150   294.20813     -38253.269      0             -37767.423     -14753.043    
    194200   304.81764     -38253.584      0             -37750.218     -17158.018    
    194250   295.05183     -38234.571      0             -37747.332     -15691.164    
    194300   301.4023      -38253.479      0             -37755.753     -16961.469    
    194350   302.31303     -38252.73       0             -37753.5       -17459.019    
    194400   286.05162     -38219.735      0             -37747.358     -16056.777    
    194450   286.93609     -38210.493      0             -37736.656     -17085.083    
    194500   303.36923     -38213.914      0             -37712.94      -15111.977    
    194550   296.44745     -38251.639      0             -37762.095     -17819.056    
    194600   303.36667     -38225.982      0             -37725.012     -15610.204    
    194650   294.27278     -38231.081      0             -37745.128     -17765.022    
    194700   288.99149     -38193.941      0             -37716.709     -14861.666    
    194750   296.39317     -38199.699      0             -37710.245     -17786.897    
    194800   290.89819     -38210.311      0             -37729.931     -15127.613    
    194850   303.47227     -38214.129      0             -37712.984     -16621.775    
    194900   296.86203     -38174.523      0             -37684.295     -15591.235    
    194950   286.8         -38189.865      0             -37716.253     -15969.683    
    195000   304.37026     -38218.798      0             -37716.17      -15315.91     
    195050   305.58297     -38229.194      0             -37724.564     -16017.838    
    195100   295.92779     -38214.486      0             -37725.8       -16257.148    
    195150   304.69708     -38198.306      0             -37695.139     -16111.13     
    195200   305.61926     -38230.001      0             -37725.311     -16915.696    
    195250   293.99788     -38226.227      0             -37740.728     -16688.391    
    195300   301.6096      -38217.772      0             -37719.703     -16864.227    
    195350   293.80323     -38216.521      0             -37731.343     -15906.245    
    195400   295.31988     -38218.864      0             -37731.182     -17439.185    
    195450   301.62181     -38214.719      0             -37716.63      -15445.948    
    195500   298.91077     -38212.196      0             -37718.584     -17053.099    
    195550   297.82369     -38210.038      0             -37718.221     -15835.113    
    195600   302.65916     -38215.451      0             -37715.649     -17514.881    
    195650   313.12262     -38242.911      0             -37725.83      -16414.447    
    195700   296.43229     -38205.427      0             -37715.908     -15748.529    
    195750   298.31435     -38210.213      0             -37717.586     -15917.531    
    195800   297.48095     -38194.055      0             -37702.804     -15751.241    
    195850   307.14257     -38232.787      0             -37725.582     -16560.121    
    195900   291.3627      -38201.577      0             -37720.43      -16421.507    
    195950   298.52378     -38187.066      0             -37694.094     -16052.695    
    196000   302.80858     -38236.342      0             -37736.293     -16919.739    
    196050   289.53999     -38184.558      0             -37706.42      -16879.667    
    196100   294.43363     -38194.354      0             -37708.135     -16292.333    
    196150   292.64915     -38195.696      0             -37712.424     -16449.914    
    196200   287.75799     -38205.518      0             -37730.323     -16516.188    
    196250   284.89854     -38190.093      0             -37719.62      -16194.464    
    196300   307.51575     -38213.489      0             -37705.667     -16250.126    
    196350   303.65075     -38195.886      0             -37694.446     -17066.159    
    196400   309.83549     -38188.953      0             -37677.3       -16103.413    
    196450   308.15865     -38205.537      0             -37696.653     -16626.785    
    196500   310.24532     -38211.141      0             -37698.812     -16473.38     
    196550   308.48914     -38208.9        0             -37699.471     -16105.81     
    196600   293.25266     -38188.565      0             -37704.297     -16062.724    
    196650   301.60943     -38197.265      0             -37699.196     -16399.401    
    196700   306.64045     -38189.471      0             -37683.095     -15494.008    
    196750   308.00423     -38219.078      0             -37710.45      -16641.818    
    196800   308.93414     -38227.034      0             -37716.87      -15437.533    
    196850   293.57177     -38227.545      0             -37742.75      -16052.605    
    196900   318.44545     -38237.496      0             -37711.625     -15181.564    
    196950   296.40206     -38218.186      0             -37728.717     -15709.076    
    197000   292.5641      -38230.259      0             -37747.128     -15447.135    
    197050   301.18847     -38219.8        0             -37722.427     -15500.227    
    197100   306.06755     -38251.497      0             -37746.067     -15052.044    
    197150   302.66791     -38252.838      0             -37753.021     -15692.274    
    197200   297.19122     -38223.767      0             -37732.995     -14782.277    
    197250   290.79488     -38207.093      0             -37726.883     -16331.873    
    197300   303.41105     -38214.669      0             -37713.626     -14914.724    
    197350   285.81372     -38210.718      0             -37738.734     -16063.636    
    197400   288.39149     -38202.844      0             -37726.604     -15495.686    
    197450   295.21231     -38208.296      0             -37720.791     -16778.44     
    197500   294.93127     -38183.722      0             -37696.682     -15118.64     
    197550   298.04048     -38190.465      0             -37698.29      -16235.974    
    197600   292.40465     -38179.559      0             -37696.692     -15258.54     
    197650   296.08188     -38201.996      0             -37713.056     -16833.493    
    197700   292.70741     -38186.094      0             -37702.726     -15463.757    
    197750   297.34536     -38178.289      0             -37687.262     -17301.057    
    197800   295.62652     -38185.713      0             -37697.525     -16298.862    
    197850   302.73833     -38190.284      0             -37690.351     -16890.786    
    197900   300.33121     -38215.586      0             -37719.629     -14888.03     
    197950   307.57075     -38185.811      0             -37677.898     -16979.527    
    198000   297.65839     -38167.464      0             -37675.92      -15161.679    
    198050   299.3456      -38212.082      0             -37717.752     -17529.759    
    198100   303.82515     -38184.112      0             -37682.384     -15172.207    
    198150   304.25222     -38202.245      0             -37699.812     -17118.348    
    198200   290.93742     -38194.652      0             -37714.207     -15688.876    
    198250   291.3146      -38169.476      0             -37688.408     -16724.65     
    198300   298.3805      -38172.006      0             -37679.269     -15909.442    
    198350   311.50363     -38207.968      0             -37693.561     -17388.2      
    198400   303.06785     -38190.34       0             -37689.863     -15838.056    
    198450   303.28627     -38189.052      0             -37688.215     -16544.67     
    198500   301.40819     -38188.908      0             -37691.172     -16825.331    
    198550   295.99827     -38173.491      0             -37684.689     -15966.221    
    198600   309.14159     -38206.713      0             -37696.206     -16913.737    
    198650   321.5872      -38210.489      0             -37679.43      -15897.361    
    198700   307.11817     -38217.491      0             -37710.326     -17143.267    
    198750   301.64752     -38223.431      0             -37725.3       -15269.299    
    198800   309.6621      -38208.973      0             -37697.606     -17061.414    
    198850   303.85686     -38231.975      0             -37730.195     -14883.973    
    198900   293.18068     -38220.692      0             -37736.542     -17375.036    
    198950   292.87222     -38210.601      0             -37726.961     -14864.91     
    199000   294.82967     -38216.11       0             -37729.238     -17047.444    
    199050   301.40441     -38214.077      0             -37716.348     -14192.691    
    199100   317.45084     -38233.5        0             -37709.272     -17369.748    
    199150   308.82359     -38249.39       0             -37739.409     -14944.573    
    199200   297.68315     -38208.453      0             -37716.868     -17948.146    
    199250   302.28901     -38235.845      0             -37736.655     -14378.736    
    199300   292.33488     -38200.194      0             -37717.441     -17515.634    
    199350   306.325       -38225.707      0             -37719.851     -13437.973    
    199400   301.46674     -38220.598      0             -37722.766     -17161.227    
    199450   317.73132     -38256.912      0             -37732.221     -13866.571    
    199500   294.11359     -38205.616      0             -37719.926     -18649.213    
    199550   296.18847     -38215.51       0             -37726.394     -13900.112    
    199600   286.2184      -38176.318      0             -37703.666     -18021.205    
    199650   295.19612     -38203.709      0             -37716.232     -14034.239    
    199700   298.87042     -38195.643      0             -37702.098     -17100.837    
    199750   311.26705     -38213.57       0             -37699.553     -14184.437    
    199800   295.7245      -38204.982      0             -37716.632     -17561.361    
    199850   288.30435     -38202.095      0             -37725.999     -14364.622    
    199900   297.0743      -38180.131      0             -37689.552     -17780.621    
    199950   302.9886      -38220.093      0             -37719.747     -14577.918    
    200000   290.5736      -38179.959      0             -37700.115     -16426.075    
Loop time of 784.224 on 4 procs for 200000 steps with 1665 atoms

Performance: 22.035 ns/day, 1.089 hours/ns, 255.029 timesteps/s, 424.623 katom-step/s
15.4% CPU use with 4 MPI tasks x 1 OpenMP threads

MPI task timing breakdown:
Section |  min time  |  avg time  |  max time  |%varavg| %total
---------------------------------------------------------------
Pair    | 412.31     | 519.5      | 626.89     | 414.7 | 66.24
Bond    | 0.079955   | 0.089048   | 0.093806   |   1.8 |  0.01
Kspace  | 85.634     | 192.98     | 300.12     | 680.3 | 24.61
Neigh   | 33.687     | 33.73      | 33.772     |   0.7 |  4.30
Comm    | 18.696     | 19.127     | 19.532     |   8.8 |  2.44
Output  | 0.29579    | 0.32465    | 0.36182    |   4.3 |  0.04
Modify  | 16.635     | 17.001     | 17.376     |   8.5 |  2.17
Other   |            | 1.48       |            |       |  0.19

Nlocal:         416.25 ave         425 max         411 min
Histogram: 2 0 0 0 1 0 0 0 0 1
Nghost:        5833.75 ave        5870 max        5794 min
Histogram: 2 0 0 0 0 0 0 0 0 2
Neighs:         203067 ave      244211 max      161079 min
Histogram: 2 0 0 0 0 0 0 0 0 2

Total # of neighbors = 812269
Ave neighs/atom = 487.84925
Ave special neighs/atom = 1.445045
Neighbor list builds = 7976
Dangerous builds = 0
write_data system.data nocoeff
System init for write_data ...
PPPM initialization ...
  extracting TIP4P info from pair style
  using 12-bit tables for long-range coulomb (src/kspace.cpp:342)
  G vector (1/distance) = 0.22477066
  grid = 12 12 40
  stencil order = 5
  estimated absolute RMS force accuracy = 0.023142321
  estimated relative force accuracy = 6.9692414e-05
  using double precision FFTW3
  3d grid and FFT values/proc = 8892 2376
Generated 9 of 10 mixed pair_coeff terms from geometric mixing rule
Total wall time: 0:13:04
