ITEM: TIMESTEP
0
ITEM: NUMBER OF ATOMS
3150
ITEM: BOX BOUNDS pp pp pp
-4.5000000000000000e+01 4.5000000000000000e+01
-1.5000000000000000e+01 1.5000000000000000e+01
-1.5000000000000000e+01 1.5000000000000000e+01
ITEM: ATOMS id type xs ys zs
159 9 0.0431392 0.000377787 0.0555868
244 8 0.0272437 0.01361 0.084087
245 9 0.0195664 0.0326253 0.0682246
246 9 0.0242787 0.010582 0.117346
289 8 0.00610979 0.18844 0.138527
290 9 0.0110224 0.178024 0.109856
484 8 0.0608675 0.182649 0.0199524
629 9 0.0790609 0.0289842 0.0902853
485 9 0.0672857 0.195177 0.0445971
61 8 0.0139297 0.00712324 0.168003
50 9 0.104641 0.0812802 0.16467
406 8 0.155343 0.186964 0.0747742
407 9 0.162452 0.162078 0.0668534
442 8 0.131488 0.0847455 0.141846
443 9 0.133026 0.0942451 0.10975
444 9 0.135798 0.10868 0.162881
458 9 0.123824 0.177936 0.189585
457 8 0.113761 0.193767 0.189481
41 9 0.116029 0.0141207 0.153594
49 8 0.0993795 0.0720693 0.193314
127 8 0.142404 0.152946 0.192864
128 9 0.147488 0.175448 0.172438
151 8 0.219921 0.0454181 0.102758
152 9 0.225525 0.0632009 0.0787052
153 9 0.227284 0.0336689 0.125484
449 9 0.205388 0.18409 0.0366647
469 8 0.232482 0.0836052 0.0271154
471 9 0.224137 0.0699547 0.00861086
610 8 0.229616 0.172635 0.172645
611 9 0.219916 0.179724 0.156138
640 8 0.194596 0.040266 0.0539581
641 9 0.192758 0.00762839 0.0475272
642 9 0.203323 0.0433759 0.0761032
612 9 0.236838 0.198424 0.169506
230 9 0.192358 0.153354 0.18861
470 9 0.235124 0.113651 0.0119977
768 9 0.247321 0.0582997 0.0485821
109 8 0.0686515 0.312781 0.16337
110 9 0.0779361 0.302829 0.146626
111 9 0.0691997 0.346767 0.167511
271 8 0.0560159 0.342728 0.00927875
272 9 0.061372 0.341801 0.0390786
273 9 0.0447104 0.3443 0.0153459
291 9 0.0107784 0.21826 0.147492
625 8 0.0262696 0.344905 0.0295738
626 9 0.0233466 0.365353 0.0552314
627 9 0.0208402 0.315072 0.0332764
3080 9 0.00574023 0.226724 0.00629116
211 8 0.0766767 0.399339 0.180022
2978 9 0.00158333 0.263913 0.199257
3079 8 0.00390087 0.248454 0.0315103
2977 8 0.00777389 0.286736 0.181392
2979 9 0.00893766 0.315746 0.199283
25 8 0.113923 0.386101 0.0775959
26 9 0.124491 0.397367 0.0813509
27 9 0.11138 0.383396 0.0447326
316 8 0.0987183 0.344654 0.142562
317 9 0.0917591 0.367834 0.156896
318 9 0.104723 0.359918 0.117236
352 8 0.117449 0.284696 0.182694
354 9 0.110279 0.304847 0.164759
408 9 0.16085 0.216193 0.0828107
459 9 0.11504 0.227739 0.185197
564 9 0.15884 0.276341 0.118648
154 8 0.205969 0.209292 0.123143
155 9 0.214151 0.225739 0.106454
156 9 0.197102 0.229866 0.127949
180 9 0.182112 0.369027 0.00428979
181 8 0.190047 0.321222 0.120979
182 9 0.197939 0.318148 0.146321
183 9 0.190895 0.354751 0.112848
562 8 0.168158 0.263226 0.105033
563 9 0.176729 0.286064 0.109568
388 8 0.212715 0.330834 0.178587
389 9 0.223133 0.318103 0.175302
390 9 0.213156 0.364893 0.182525
448 8 0.212071 0.201574 0.0155302
450 9 0.207379 0.231095 0.00666368
1510 8 0.246921 0.275592 0.139607
212 9 0.074174 0.430959 0.170324
537 9 0.0274979 0.596103 0.158396
536 9 0.0119419 0.593765 0.186788
3 9 0.0703443 0.530569 0.00627897
147 9 0.114734 0.593577 0.186453
260 9 0.231899 0.434695 0.0239459
295 8 0.186953 0.472283 0.0613165
296 9 0.19043 0.494532 0.0373328
297 9 0.182806 0.44502 0.0441832
349 8 0.222181 0.426037 0.178268
351 9 0.233611 0.423501 0.182218
505 8 0.198081 0.410742 0.120423
506 9 0.207646 0.420061 0.136419
507 9 0.194481 0.437176 0.101434
571 8 0.236239 0.523621 0.0397575
572 9 0.236988 0.538308 0.0701455
573 9 0.229646 0.542386 0.0187579
712 8 0.184377 0.571513 0.0744406
713 9 0.182643 0.542049 0.0905797
714 9 0.188469 0.56356 0.043616
178 8 0.181538 0.402756 0.00492276
1334 9 0.249818 0.5015 0.00933615
67 8 0.0592053 0.672059 0.0549622
68 9 0.0652947 0.688278 0.0315222
69 9 0.0486888 0.684136 0.0564638
77 9 0.00174464 0.757953 0.0807884
394 8 0.078421 0.634454 0.11532
395 9 0.078131 0.653546 0.143107
396 9 0.0708937 0.645984 0.0921517
535 8 0.0228778 0.603253 0.18837
22 8 0.149303 0.763188 0.111192
23 9 0.138247 0.772319 0.113509
24 9 0.150094 0.731762 0.123273
34 8 0.121062 0.793389 0.101445
749 9 0.159375 0.787305 0.0736564
750 9 0.162144 0.785551 0.0181985
361 8 0.2118 0.73646 0.148859
362 9 0.202849 0.74756 0.131595
363 9 0.213193 0.756561 0.176698
559 8 0.171371 0.652843 0.0952951
560 9 0.179353 0.675947 0.0907217
561 9 0.175562 0.621594 0.0881349
632 9 0.215058 0.787556 0.0533625
240 9 0.245063 0.780467 0.125748
105 9 0.23062 0.71011 0.176218
103 8 0.240261 0.703625 0.193069
104 9 0.24833 0.695763 0.169771
628 8 0.0778341 0.995373 0.0886142
358 8 0.00417526 0.814127 0.119028
157 8 0.052361 0.992042 0.0367176
158 9 0.0613481 0.989937 0.0581008
359 9 0.0142311 0.823057 0.131863
637 8 0.0737462 0.881597 0.0300416
639 9 0.0642797 0.888705 0.0121303
63 9 0.00463706 0.988247 0.165155
638 9 0.0813026 0.905439 0.022419
651 9 0.0508802 0.947338 0.0029372
35 9 0.112413 0.814029 0.110161
36 9 0.124533 0.805073 0.0708599
748 8 0.164615 0.802592 0.0465503
630 9 0.0870892 0.980609 0.101659
40 8 0.112186 0.991321 0.131227
42 9 0.121211 0.980132 0.113181
79 8 0.15304 0.88421 0.0650688
80 9 0.153627 0.884562 0.0988306
81 9 0.158825 0.856288 0.054274
169 8 0.0995427 0.862278 0.0977471
170 9 0.0991636 0.881909 0.125392
171 9 0.0894746 0.863177 0.0820116
334 8 0.138803 0.970709 0.0900283
335 9 0.144159 0.946449 0.0722517
336 9 0.145867 0.995541 0.0994088
682 8 0.127995 0.844397 0.0294425
683 9 0.118731 0.860978 0.0400921
684 9 0.137305 0.861953 0.0393533
631 8 0.222509 0.81195 0.046666
238 8 0.239556 0.809917 0.122178
239 9 0.239991 0.827629 0.151033
633 9 0.229149 0.815979 0.0745899
1338 9 0.247081 0.904353 0.0456725
62 9 0.0143714 0.0182408 0.200483
223 8 0.063437 0.036797 0.342084
224 9 0.0724157 0.0344019 0.363407
225 9 0.0539437 0.0314426 0.359238
553 8 0.0132264 0.0318331 0.257212
554 9 0.0213537 0.0554367 0.257491
555 9 0.0134731 0.0142715 0.286235
51 9 0.0914638 0.0947316 0.201688
129 9 0.149854 0.142947 0.217349
226 8 0.160516 0.143854 0.348678
228 9 0.149242 0.142271 0.355134
327 9 0.16032 0.0225881 0.318629
436 8 0.13417 0.0920494 0.275086
437 9 0.128109 0.107871 0.251159
438 9 0.1452 0.0982878 0.268064
445 8 0.115914 0.0148165 0.242059
446 9 0.12306 0.0341615 0.260015
447 9 0.108699 0.0353202 0.224768
508 8 0.130524 0.127685 0.358119
509 9 0.131692 0.112846 0.327135
510 9 0.120122 0.121063 0.369297
648 9 0.166602 0.0377678 0.38949
227 9 0.164866 0.173125 0.361585
370 8 0.162147 0.125777 0.256968
372 9 0.16358 0.133712 0.290265
647 9 0.162417 0.0908668 0.398118
325 8 0.169447 0.00962274 0.333833
229 8 0.188749 0.130719 0.211523
231 9 0.196314 0.105619 0.214038
371 9 0.17241 0.126094 0.241144
698 9 0.187562 0.00641034 0.356564
699 9 0.204114 0.02115 0.378519
512 9 0.071638 0.300005 0.219323
304 8 0.0332832 0.354997 0.34948
305 9 0.0419486 0.335569 0.339471
306 9 0.0282074 0.341404 0.376567
376 8 0.0167839 0.362603 0.229132
377 9 0.0267569 0.34997 0.219769
378 9 0.018549 0.387274 0.252497
511 8 0.0761426 0.297003 0.25075
513 9 0.0822606 0.268724 0.252204
209 9 0.0283068 0.396475 0.31603
213 9 0.0771203 0.397843 0.213932
353 9 0.122057 0.303401 0.207285
344 9 0.109081 0.234513 0.376291
136 8 0.247695 0.328539 0.280506
138 9 0.241241 0.356039 0.287703
727 8 0.171517 0.220304 0.38598
729 9 0.168701 0.252544 0.379926
5 9 0.0531929 0.596135 0.238424
208 8 0.025168 0.422371 0.295095
210 9 0.0233835 0.450375 0.313263
310 8 0.0572097 0.541221 0.248293
311 9 0.0645723 0.537655 0.273697
312 9 0.0481283 0.521642 0.25269
145 8 0.114486 0.585499 0.219323
265 8 0.125006 0.541499 0.361578
266 9 0.133541 0.542498 0.384652
267 9 0.119735 0.572143 0.363119
337 8 0.133444 0.422714 0.324433
338 9 0.144428 0.425538 0.316057
339 9 0.128238 0.448373 0.308079
463 8 0.157614 0.468769 0.285098
464 9 0.163707 0.479803 0.258799
465 9 0.147388 0.484754 0.284283
601 8 0.129512 0.506998 0.281085
602 9 0.124903 0.529094 0.258995
603 9 0.127627 0.519275 0.313154
659 9 0.125874 0.408155 0.373765
350 9 0.218808 0.449796 0.200151
19 8 0.239589 0.41381 0.30925
21 9 0.240382 0.437723 0.285145
184 8 0.239937 0.566307 0.245648
185 9 0.236855 0.586228 0.220017
186 9 0.230942 0.561099 0.266793
190 8 0.218225 0.54531 0.303858
191 9 0.223124 0.558095 0.3325
192 9 0.212583 0.517077 0.311953
262 8 0.179951 0.52082 0.398965
263 9 0.189258 0.537127 0.390148
264 9 0.180148 0.491744 0.380827
499 8 0.179851 0.447122 0.344097
500 9 0.181665 0.413899 0.342949
501 9 0.171393 0.454495 0.321964
583 8 0.232177 0.575534 0.378066
585 9 0.241775 0.590401 0.366074
20 9 0.24638 0.424175 0.335023
1239 9 0.248872 0.520883 0.257309
4 8 0.0488336 0.627978 0.236909
6 9 0.0386836 0.62468 0.221454
124 8 0.0249378 0.668749 0.314927
125 9 0.0284206 0.649191 0.340671
126 9 0.0336703 0.676124 0.294618
538 8 0.0725118 0.659231 0.28672
539 9 0.0723076 0.692792 0.289802
540 9 0.0636486 0.64873 0.267624
419 9 0.00676234 0.678001 0.304717
146 9 0.107504 0.606349 0.235824
400 8 0.11294 0.624798 0.366595
401 9 0.119533 0.651227 0.375615
402 9 0.10334 0.63592 0.352621
504 9 0.127516 0.736097 0.366084
502 8 0.130211 0.712001 0.388414
253 8 0.234731 0.688622 0.378545
255 9 0.234344 0.693288 0.34435
280 8 0.20981 0.672249 0.242775
281 9 0.209691 0.646774 0.220565
282 9 0.203765 0.69798 0.23023
589 8 0.216133 0.780515 0.225023
590 9 0.22333 0.76029 0.241681
592 8 0.235249 0.689348 0.286923
593 9 0.241273 0.695699 0.258492
594 9 0.224739 0.679895 0.27635
254 9 0.22946 0.65957 0.386391
440 9 0.0319714 0.83363 0.36807
439 8 0.028225 0.818262 0.339321
441 9 0.0347092 0.826303 0.313076
355 8 0.0963299 0.924454 0.207413
356 9 0.0869413 0.942665 0.211991
357 9 0.105061 0.94588 0.203382
742 8 0.0951664 0.856643 0.268503
743 9 0.10404 0.8604 0.288792
744 9 0.0954247 0.88023 0.243445
326 9 0.174328 0.986611 0.312852
591 9 0.215325 0.810817 0.24167
28 8 0.189329 0.951942 0.286815
29 9 0.196389 0.936072 0.265797
30 9 0.195037 0.966605 0.313033
655 8 0.215401 0.855579 0.272669
656 9 0.223015 0.880036 0.276799
657 9 0.207979 0.857077 0.297943
697 8 0.198664 0.998424 0.358579
214 8 0.0612167 0.0117925 0.556162
215 9 0.0723385 0.0126979 0.561717
216 9 0.055875 0.0108092 0.58602
367 8 0.0404114 0.181299 0.451561
368 9 0.0303734 0.165933 0.449162
369 9 0.0487166 0.158833 0.447041
595 8 0.0828524 0.0288871 0.412054
2975 9 0.00566448 0.126338 0.577075
662 9 0.065511 0.167856 0.594544
646 8 0.164884 0.0614479 0.413569
220 8 0.118121 0.175879 0.469888
221 9 0.125844 0.154802 0.457027
222 9 0.11466 0.197867 0.445392
597 9 0.0851043 0.0492432 0.438134
315 9 0.167648 0.0999069 0.582684
93 9 0.204895 0.0250491 0.454739
175 8 0.239068 0.182647 0.575424
176 9 0.243673 0.154528 0.563256
292 8 0.2116 0.0607722 0.412081
293 9 0.222772 0.0634815 0.407287
294 9 0.207234 0.0919541 0.411586
487 8 0.173975 0.0371506 0.503858
488 9 0.168316 0.0470771 0.475796
489 9 0.184148 0.0245794 0.493551
91 8 0.200018 0.00449372 0.478013
168 9 0.180537 0.00401987 0.554547
232 8 0.0827757 0.235145 0.463185
409 8 0.0540475 0.30724 0.536951
410 9 0.0543986 0.29692 0.504001
411 9 0.0473962 0.285935 0.55398
579 9 0.0658342 0.32192 0.579553
694 8 0.0545516 0.263675 0.457119
695 9 0.0656245 0.253834 0.456215
696 9 0.0479511 0.235744 0.453538
686 9 0.114402 0.209676 0.514544
233 9 0.0911503 0.233452 0.439903
234 9 0.0873766 0.232009 0.494011
300 9 0.161033 0.398564 0.543965
343 8 0.108331 0.236912 0.410056
345 9 0.110357 0.269969 0.418958
532 8 0.11092 0.323655 0.430715
533 9 0.11539 0.353143 0.41865
534 9 0.101963 0.33178 0.449593
608 9 0.112183 0.274552 0.585911
685 8 0.113461 0.236929 0.535505
687 9 0.122894 0.255107 0.531807
177 9 0.247275 0.205545 0.582506
298 8 0.170398 0.379489 0.548842
299 9 0.179517 0.39722 0.539655
490 8 0.192102 0.319577 0.522054
491 9 0.200624 0.324943 0.543453
492 9 0.182455 0.333711 0.533654
728 9 0.18066 0.219345 0.405833
674 9 0.0450502 0.570731 0.416486
319 8 0.0609423 0.539611 0.429551
320 9 0.0700135 0.559258 0.434902
321 9 0.0631299 0.506954 0.435671
673 8 0.0360334 0.591863 0.417306
710 9 0.0420013 0.582158 0.51135
526 8 0.0704446 0.590469 0.594992
527 9 0.0726412 0.558459 0.586209
623 9 0.157786 0.539553 0.416882
658 8 0.120236 0.406493 0.403912
613 8 0.146217 0.435124 0.535661
614 9 0.148229 0.464381 0.519412
615 9 0.138302 0.417791 0.518627
622 8 0.147233 0.550838 0.423273
624 9 0.147628 0.579845 0.440872
660 9 0.116311 0.437707 0.409546
667 8 0.0935908 0.583464 0.511959
669 9 0.101257 0.593466 0.489304
725 9 0.145176 0.441533 0.59462
584 9 0.234453 0.560935 0.407916
84 9 0.201891 0.578493 0.573526
580 8 0.00293526 0.698915 0.568741
581 9 0.0108959 0.707252 0.592444
664 8 0.0467725 0.643031 0.590928
665 9 0.0559604 0.621974 0.592692
675 9 0.0348826 0.603795 0.449314
709 8 0.0363398 0.611066 0.506801
711 9 0.0380661 0.630104 0.534792
200 9 0.00504307 0.63601 0.47785
528 9 0.080512 0.60707 0.595909
531 9 0.055403 0.750474 0.597575
201 9 2.07054e-05 0.664537 0.522976
503 9 0.137105 0.726044 0.411698
522 9 0.140983 0.795798 0.46455
668 9 0.095094 0.600183 0.541516
520 8 0.144623 0.789505 0.433136
115 8 0.0974055 0.629933 0.593506
117 9 0.0990962 0.663442 0.593798
7 8 0.18684 0.699433 0.478318
8 9 0.187815 0.695087 0.444992
9 9 0.19472 0.722883 0.487964
66 9 0.234621 0.733205 0.419411
118 8 0.166906 0.645561 0.52244
119 9 0.169606 0.647866 0.555565
120 9 0.173919 0.666065 0.504526
193 8 0.208295 0.758858 0.495997
194 9 0.210988 0.770726 0.527366
195 9 0.217842 0.758067 0.47663
202 8 0.214222 0.78946 0.579949
1331 9 0.243041 0.644939 0.48944
65 9 0.240539 0.782122 0.440197
64 8 0.233188 0.756395 0.444308
45 9 0.0494676 0.844347 0.422097
381 9 0.0536781 0.987402 0.510261
43 8 0.039948 0.85919 0.411702
44 9 0.0402063 0.892051 0.419692
130 8 0.0036262 0.885349 0.489497
131 9 0.0131174 0.86923 0.48088
379 8 0.0475621 0.975911 0.48359
380 9 0.0366482 0.980623 0.490151
106 8 0.118028 0.927136 0.523695
107 9 0.128571 0.915448 0.520519
108 9 0.118004 0.960901 0.525851
427 8 0.0976677 0.871888 0.562666
428 9 0.10456 0.892547 0.54452
429 9 0.102921 0.861252 0.590445
521 9 0.153856 0.807532 0.425822
596 9 0.0839749 0.996337 0.420678
94 8 0.245459 0.845195 0.431765
204 9 0.223858 0.806718 0.583567
92 9 0.204313 0.973352 0.475527
95 9 0.234689 0.846205 0.421906
167 9 0.170592 0.99619 0.598739
433 8 0.2494 0.899368 0.597916
565 8 0.17767 0.848934 0.574006
566 9 0.183121 0.830823 0.550426
567 9 0.184581 0.874135 0.585473
140 9 0.190279 0.942943 0.599217
166 8 0.181358 0.992101 0.586584
434 9 0.239194 0.913254 0.593773
96 9 0.249518 0.877463 0.43111
13 8 0.0164158 0.198932 0.707801
15 9 0.0256251 0.191741 0.689216
286 8 0.0658594 0.153217 0.765698
287 9 0.0715427 0.141349 0.738376
288 9 0.0555109 0.163177 0.756969
523 8 0.0813399 0.128333 0.690215
525 9 0.0739241 0.138102 0.665406
661 8 0.0634548 0.162053 0.627259
663 9 0.0542995 0.180664 0.636711
756 9 0.0931653 0.0678132 0.793315
250 8 0.15128 0.0531373 0.773628
251 9 0.15764 0.0356324 0.796152
252 9 0.155031 0.0857496 0.776152
517 8 0.155968 0.0145073 0.624548
518 9 0.151309 0.00185072 0.653639
519 9 0.156938 0.0488946 0.62548
524 9 0.0907079 0.14698 0.686841
586 8 0.0907821 0.0561701 0.738769
587 9 0.0859279 0.0796241 0.718195
588 9 0.101957 0.0541984 0.732263
645 9 0.130353 0.18602 0.732168
679 8 0.121396 0.0604024 0.760069
680 9 0.132893 0.0579421 0.761896
681 9 0.117729 0.0781641 0.787
715 8 0.163682 0.136574 0.785348
717 9 0.159906 0.168142 0.793065
313 8 0.166434 0.100013 0.616405
606 9 0.114677 0.0085502 0.77535
314 9 0.175925 0.110694 0.631773
747 9 0.20593 0.133167 0.684906
496 8 0.185828 0.0125978 0.674678
497 9 0.185625 0.00376961 0.641332
498 9 0.174989 0.014729 0.684711
746 9 0.211657 0.185972 0.68415
616 8 0.242751 0.0220928 0.68896
618 9 0.232574 0.0255676 0.674767
621 9 0.199959 0.150261 0.750207
688 8 0.241308 0.157194 0.728705
689 9 0.229984 0.159663 0.725284
716 9 0.175046 0.138446 0.780564
739 8 0.197114 0.0955367 0.651713
740 9 0.201102 0.0890274 0.620654
741 9 0.193384 0.0661193 0.665829
745 8 0.211254 0.157878 0.703136
619 8 0.194036 0.141223 0.778181
690 9 0.244644 0.133478 0.706723
14 9 0.0172397 0.231355 0.718621
46 8 0.0207581 0.290205 0.721066
47 9 0.0237864 0.294583 0.754209
48 9 0.0252953 0.316946 0.705338
97 8 0.0407163 0.217842 0.650408
98 9 0.0484572 0.239932 0.663768
99 9 0.0315476 0.235376 0.641079
467 9 0.00893147 0.384039 0.623512
556 8 0.00297177 0.275963 0.646638
557 9 0.00778624 0.278381 0.67766
558 9 0.00106138 0.307591 0.634748
577 8 0.070912 0.322932 0.610483
578 9 0.0807767 0.339751 0.608547
670 8 0.0614843 0.275096 0.678917
671 9 0.069479 0.276587 0.70272
672 9 0.064878 0.293343 0.651116
466 8 0.000164651 0.363451 0.617431
205 8 0.143023 0.31032 0.648542
206 9 0.132734 0.3047 0.634084
207 9 0.150137 0.321263 0.624753
364 8 0.097177 0.363647 0.638183
365 9 0.106139 0.384107 0.645639
366 9 0.0896535 0.36814 0.663098
452 9 0.0852915 0.3714 0.786451
550 8 0.150853 0.321964 0.734284
551 9 0.147624 0.31658 0.701289
552 9 0.161857 0.314577 0.737494
607 8 0.116492 0.297708 0.607463
609 9 0.108322 0.320199 0.615974
643 8 0.131201 0.219052 0.739379
644 9 0.130924 0.238172 0.711359
700 8 0.128555 0.380535 0.748192
701 9 0.136555 0.355653 0.746039
702 9 0.11935 0.368748 0.764441
451 8 0.0957127 0.382667 0.780444
547 8 0.154428 0.224386 0.796688
549 9 0.144826 0.224015 0.777571
385 8 0.208378 0.399581 0.642365
100 8 0.0666803 0.555791 0.792933
133 8 0.0084744 0.506507 0.776113
134 9 0.0104167 0.475838 0.762538
135 9 0.00530012 0.528768 0.751441
544 8 0.00521033 0.402299 0.772343
101 9 0.0764371 0.572469 0.798899
163 8 0.118976 0.417433 0.669938
164 9 0.122138 0.402931 0.699761
422 9 0.141412 0.424492 0.749529
58 8 0.142287 0.562926 0.678161
59 9 0.153215 0.569761 0.669757
60 9 0.14074 0.529416 0.679049
165 9 0.128685 0.427637 0.65439
307 8 0.113894 0.590624 0.658363
308 9 0.125088 0.58953 0.666104
309 9 0.111278 0.55745 0.652799
322 8 0.111929 0.502634 0.640261
323 9 0.111952 0.472653 0.656978
324 9 0.118796 0.499735 0.613531
421 8 0.147423 0.453731 0.751998
423 9 0.140737 0.477466 0.765653
724 8 0.143585 0.447344 0.628177
726 9 0.153491 0.447587 0.644554
18 9 0.165956 0.459766 0.759675
453 9 0.0953797 0.416461 0.78087
82 8 0.200557 0.586834 0.606268
83 9 0.210595 0.581893 0.623075
387 9 0.204799 0.402372 0.674326
16 8 0.177115 0.467594 0.764252
17 9 0.178996 0.497146 0.748511
256 8 0.206771 0.434271 0.760787
258 9 0.195734 0.442105 0.757097
328 8 0.171137 0.578029 0.653614
329 9 0.181137 0.566878 0.641993
386 9 0.217388 0.419273 0.637522
391 8 0.239776 0.448098 0.728961
392 9 0.229063 0.43989 0.736534
703 8 0.226598 0.571856 0.650399
704 9 0.223619 0.585559 0.680908
705 9 0.236952 0.558023 0.653939
257 9 0.209877 0.441593 0.79249
393 9 0.246221 0.446547 0.757527
1203 9 0.247893 0.491948 0.70279
2733 9 0.00671667 0.624194 0.644981
666 9 0.0500027 0.674258 0.601556
148 8 0.0694655 0.773533 0.685952
149 9 0.0698935 0.77568 0.720436
529 8 0.0533795 0.728981 0.622994
530 9 0.0589291 0.741704 0.650498
691 8 0.0247912 0.624732 0.650645
692 9 0.028585 0.604029 0.674941
693 9 0.0328388 0.626031 0.626072
718 8 0.0233918 0.714257 0.631977
719 9 0.0343894 0.723919 0.630931
720 9 0.0227635 0.682452 0.644929
150 9 0.0763889 0.797445 0.674151
475 8 0.0739996 0.790855 0.773747
516 9 0.00603615 0.643974 0.78468
10 8 0.154238 0.760515 0.759798
11 9 0.162927 0.776667 0.774252
12 9 0.153694 0.768808 0.726906
762 9 0.0958239 0.609911 0.773161
57 9 0.121783 0.739586 0.797584
116 9 0.104242 0.615727 0.617535
753 9 0.0874161 0.640296 0.705678
752 9 0.103969 0.615657 0.698419
751 8 0.0967698 0.629802 0.72137
56 9 0.14023 0.743479 0.794335
31 8 0.179557 0.65243 0.607106
32 9 0.188102 0.629213 0.606012
33 9 0.183668 0.683967 0.606552
330 9 0.170474 0.609936 0.64109
373 8 0.215306 0.606059 0.727605
374 9 0.217011 0.615695 0.760263
203 9 0.209411 0.783669 0.610074
277 8 0.241789 0.693477 0.798223
331 8 0.213203 0.732709 0.789533
332 9 0.224226 0.724154 0.79103
333 9 0.212521 0.767198 0.789136
375 9 0.20571 0.620201 0.716738
279 9 0.248727 0.699192 0.771413
268 8 0.0219471 0.829238 0.765883
269 9 0.0258891 0.803813 0.747018
270 9 0.0302749 0.847734 0.779054
477 9 0.0767463 0.823731 0.780361
70 8 0.148001 0.981848 0.70388
71 9 0.151133 0.949062 0.709164
72 9 0.147259 0.998835 0.733494
283 8 0.15729 0.832789 0.643347
284 9 0.156826 0.858818 0.66534
285 9 0.16397 0.840027 0.616425
301 8 0.159663 0.896387 0.714812
302 9 0.155973 0.890701 0.747435
543 9 0.089127 0.88775 0.765311
568 8 0.10228 0.91318 0.733464
569 9 0.109333 0.911195 0.707216
570 9 0.105782 0.939668 0.75291
604 8 0.111 0.978989 0.789023
541 8 0.0836836 0.875142 0.793193
415 8 0.213771 0.823707 0.791384
617 9 0.242346 0.995856 0.71128
303 9 0.170981 0.895294 0.714581
73 8 0.221071 0.894541 0.740152
74 9 0.211745 0.914487 0.737483
75 9 0.230283 0.914892 0.740739
85 8 0.196244 0.945866 0.733279
86 9 0.192738 0.973141 0.715324
87 9 0.190604 0.94327 0.763232
139 8 0.195106 0.913592 0.609826
141 9 0.197149 0.914781 0.643103
416 9 0.217191 0.848231 0.769268
1411 8 0.245686 0.948007 0.740436
634 8 0.055421 0.00953341 0.935741
635 9 0.0567236 0.0113429 0.969643
636 9 0.0481505 0.0332057 0.925497
2900 9 0.00115863 0.0624605 0.864644
114 9 0.162193 0.0266627 0.860818
755 9 0.0893414 0.102165 0.835273
754 8 0.0967774 0.0791399 0.824141
172 8 0.149555 0.0489708 0.894248
173 9 0.149009 0.0659096 0.92348
174 9 0.13889 0.0457981 0.881371
460 8 0.121664 0.0390003 0.861792
461 9 0.121041 0.00901194 0.845975
462 9 0.112054 0.0559004 0.854048
620 9 0.2009 0.126235 0.800404
196 8 0.220036 0.0121023 0.918383
198 9 0.220851 0.0464501 0.918894
652 8 0.221286 0.102589 0.926806
653 9 0.228239 0.123593 0.94451
654 9 0.212642 0.120651 0.914832
721 8 0.236161 0.160304 0.98039
722 9 0.2431 0.183944 0.965738
723 9 0.227508 0.178219 0.994552
112 8 0.170337 0.0181506 0.837662
113 9 0.178978 0.0393665 0.842862
486 9 0.0615917 0.202536 0.991992
2961 9 0.011526 0.365708 0.884334
2959 8 0.00654586 0.361586 0.853291
546 9 0.00635146 0.388294 0.803722
758 9 0.0640598 0.213468 0.917364
759 9 0.0612408 0.264765 0.935288
757 8 0.0638814 0.233163 0.944654
397 8 0.0195538 0.368819 0.933984
398 9 0.0202656 0.360312 0.966948
399 9 0.0292331 0.385354 0.925248
454 8 0.029804 0.316195 0.803174
455 9 0.0372475 0.309325 0.827618
456 9 0.0220571 0.337806 0.815792
478 8 0.0627918 0.327959 0.924563
479 9 0.0599399 0.334398 0.957755
480 9 0.0740661 0.326074 0.922123
707 9 0.0522092 0.376567 0.912626
548 9 0.156541 0.256189 0.806085
53 9 0.241559 0.273844 0.810773
52 8 0.239777 0.249899 0.83406
54 9 0.23544 0.221885 0.820218
1380 9 0.248805 0.239919 0.911574
347 9 0.0259742 0.59769 0.969946
102 9 0.057549 0.574036 0.802347
1 8 0.0735966 0.501738 0.99161
247 8 0.0400352 0.593882 0.825395
248 9 0.0384151 0.570308 0.84916
342 9 0.00497925 0.495715 0.89533
472 8 0.0195185 0.4973 0.860198
473 9 0.0157299 0.503662 0.828074
474 9 0.0273995 0.472927 0.859376
706 8 0.0461565 0.405737 0.911994
708 9 0.0522082 0.431122 0.925326
761 9 0.103655 0.570148 0.804216
760 8 0.0952163 0.593314 0.803515
2 9 0.0846689 0.501702 0.985397
274 8 0.146469 0.583517 0.847716
424 8 0.119449 0.541382 0.834019
425 9 0.11381 0.55442 0.860829
426 9 0.130441 0.550116 0.837386
275 9 0.149223 0.597587 0.818045
123 9 0.231875 0.58138 0.970861
179 9 0.190109 0.41633 0.986102
910 8 0.249046 0.585939 0.952435
217 8 0.181214 0.537995 0.911727
218 9 0.183382 0.510828 0.891163
219 9 0.17027 0.545276 0.907063
259 8 0.232873 0.431113 0.990453
261 9 0.242906 0.444903 0.981963
382 8 0.195329 0.530268 0.994747
383 9 0.205134 0.548116 0.991568
384 9 0.189225 0.534766 0.965838
493 8 0.184117 0.468056 0.855382
494 9 0.185064 0.436973 0.868621
495 9 0.18091 0.466721 0.822394
574 8 0.203633 0.598745 0.908814
575 9 0.194683 0.577192 0.907407
598 8 0.204309 0.443625 0.964349
599 9 0.2154 0.436669 0.970263
600 9 0.202781 0.47622 0.973111
736 8 0.231372 0.579436 0.866405
737 9 0.227274 0.599638 0.841755
738 9 0.222737 0.57306 0.887614
911 9 0.248306 0.590904 0.918713
121 8 0.220814 0.576282 0.979704
122 9 0.214419 0.59067 0.954838
476 9 0.0765431 0.771571 0.800492
249 9 0.0298604 0.605196 0.81448
346 8 0.0153596 0.604559 0.978907
348 9 0.00990701 0.621063 0.953661
514 8 0.0110682 0.630046 0.812659
515 9 0.012506 0.654296 0.83582
276 9 0.143112 0.607574 0.869296
55 8 0.131368 0.734815 0.814668
142 8 0.135008 0.741864 0.904604
143 9 0.132206 0.73978 0.871149
144 9 0.145653 0.731475 0.908099
403 8 0.104708 0.601685 0.890011
404 9 0.0989221 0.602215 0.86027
405 9 0.105062 0.632686 0.90348
413 9 0.135355 0.791579 0.932515
576 9 0.20281 0.621268 0.883471
189 9 0.243009 0.788666 0.940476
235 8 0.217344 0.643109 0.811504
236 9 0.22795 0.656999 0.807693
237 9 0.210683 0.670334 0.806181
278 9 0.248306 0.698783 0.826053
734 9 0.0783945 0.942111 0.818041
649 8 0.0519571 0.925011 0.976893
650 9 0.0530194 0.944017 0.948814
735 9 0.0775912 0.984305 0.854129
37 8 0.153591 0.88914 0.80156
39 9 0.146658 0.88366 0.828864
605 9 0.100704 0.984194 0.80304
542 9 0.0910042 0.875777 0.819673
38 9 0.163603 0.902782 0.811414
412 8 0.138039 0.822823 0.944729
414 9 0.133561 0.828174 0.9759
481 8 0.106658 0.902922 0.848192
482 9 0.113794 0.914038 0.823902
483 9 0.0990853 0.927931 0.854693
676 8 0.135539 0.878816 0.873817
677 9 0.137495 0.859487 0.901905
678 9 0.124253 0.883174 0.871047
733 8 0.0844725 0.965311 0.835095
417 9 0.20934 0.839113 0.818432
243 9 0.218913 0.90974 0.97676
732 9 0.207925 0.846775 0.992929
731 9 0.219199 0.837258 0.951131
242 9 0.227565 0.945951 0.943985
241 8 0.224969 0.93889 0.976342
197 9 0.218818 0.999508 0.949718
162 9 0.186299 0.920569 0.840229
730 8 0.210634 0.857931 0.961813
187 8 0.233395 0.800376 0.953831
188 9 0.233803 0.800665 0.987969
88 8 0.192523 0.892242 0.889902
89 9 0.200235 0.880407 0.912301
90 9 0.182452 0.891492 0.905123
160 8 0.180704 0.935036 0.813853
161 9 0.176469 0.96551 0.823911
766 8 0.256425 0.0452045 0.0652201
767 9 0.264212 0.0694841 0.0682633
973 8 0.306918 0.0650867 0.159501
974 9 0.295909 0.0565063 0.165474
975 9 0.308916 0.0664067 0.126334
1183 8 0.278419 0.0436581 0.169832
1184 9 0.273166 0.017191 0.154241
1185 9 0.27128 0.0558955 0.192782
1464 9 0.260194 0.00581308 0.101279
1119 9 0.381456 0.0568954 0.0198724
1227 9 0.412591 0.163951 0.112915
1372 8 0.412579 0.101956 0.0105833
1373 9 0.416052 0.0835444 0.0377173
800 9 0.467952 0.0369396 0.0611788
1144 8 0.423234 0.064696 0.0873366
1145 9 0.423882 0.0962791 0.10082
1146 9 0.433584 0.0532912 0.0794475
1225 8 0.42302 0.151847 0.118141
1226 9 0.426575 0.163643 0.148848
1267 8 0.491444 0.0719855 0.128084
1269 9 0.489253 0.0995626 0.146463
1348 8 0.425415 0.0227163 0.191239
1350 9 0.419874 0.0380967 0.165835
1374 9 0.42028 0.127248 0.0077931
1432 8 0.434842 0.161596 0.0330347
1433 9 0.431763 0.160647 0.0660436
1434 9 0.445189 0.1747 0.0300636
799 8 0.458721 0.0232118 0.0472918
1511 9 0.252344 0.278574 0.110056
1512 9 0.252477 0.291434 0.164439
1162 8 0.409421 0.26683 0.183492
1163 9 0.415476 0.237894 0.181612
1480 8 0.395443 0.354909 0.0657715
1481 9 0.39147 0.334158 0.0418523
1482 9 0.399232 0.337605 0.0925475
813 9 0.344171 0.379921 0.192178
1404 9 0.421155 0.314963 0.195795
1416 9 0.32732 0.465289 0.0874997
1447 8 0.284417 0.506132 0.0274526
1449 9 0.294088 0.501495 0.0101645
1418 9 0.2786 0.558416 0.0105205
1448 9 0.275362 0.490191 0.0137226
928 8 0.390478 0.440514 0.0386138
929 9 0.392818 0.408619 0.0501846
930 9 0.394316 0.462612 0.0619318
1345 8 0.408177 0.470388 0.124545
1347 9 0.404197 0.478904 0.155073
1414 8 0.335197 0.450986 0.0681047
1415 9 0.333488 0.458563 0.0353504
1389 9 0.352786 0.417731 0.0294917
1346 9 0.418691 0.458716 0.127721
1450 8 0.458908 0.472176 0.182482
1451 9 0.458727 0.43993 0.192957
1452 9 0.469663 0.482212 0.179127
1517 9 0.441882 0.593019 0.0858075
775 8 0.258317 0.685052 0.121862
776 9 0.252426 0.679852 0.0934785
777 9 0.268898 0.676132 0.113052
985 8 0.278211 0.654031 0.0526128
986 9 0.287514 0.671121 0.0441197
987 9 0.276806 0.628174 0.0304443
769 8 0.395619 0.741673 0.0911624
770 9 0.403956 0.718569 0.0854015
771 9 0.391931 0.754054 0.0617105
820 8 0.346713 0.666153 0.0122565
822 9 0.34762 0.696636 0.0266262
1171 8 0.415632 0.674972 0.0831013
1172 9 0.410623 0.6595 0.10928
1465 8 0.38567 0.704276 0.171262
1466 9 0.389748 0.720919 0.143828
1467 9 0.374673 0.69841 0.167064
1516 8 0.438528 0.618488 0.0658654
871 8 0.477663 0.777466 0.105476
872 9 0.478141 0.743851 0.11088
873 9 0.469676 0.784527 0.0815754
1173 9 0.424568 0.655407 0.0734397
1518 9 0.443584 0.616779 0.0356128
1521 9 0.496016 0.788342 0.108162
1289 9 0.460032 0.793569 0.0113063
1223 9 0.497711 0.717082 0.0120213
1443 9 0.421457 0.753755 0.00189305
848 9 0.267408 0.88585 0.0110928
1336 8 0.256522 0.923064 0.0471763
1337 9 0.254503 0.953164 0.032734
1462 8 0.263436 0.980939 0.123226
1463 9 0.263016 0.951594 0.10589
855 9 0.327625 0.95011 0.184091
916 8 0.355068 0.810963 0.0154226
917 9 0.361506 0.823311 0.0408386
1147 8 0.371525 0.839304 0.0900064
1148 9 0.369515 0.811714 0.108753
1149 9 0.365474 0.865639 0.103337
1150 8 0.405487 0.86702 0.0989621
1151 9 0.40711 0.864554 0.132843
1152 9 0.394822 0.856835 0.0922373
1541 9 0.393063 0.951521 0.0259119
1468 8 0.354922 0.907243 0.12166
1469 9 0.352911 0.930387 0.0976875
1470 9 0.349204 0.916153 0.150201
853 8 0.338366 0.942285 0.191379
918 9 0.347607 0.833779 0.00457469
936 9 0.470241 0.803611 0.153796
1290 9 0.446523 0.816543 0.0417528
1442 9 0.422891 0.809132 0.00448418
1105 8 0.41671 0.869311 0.188574
801 9 0.457996 0.990608 0.0584975
925 8 0.429383 0.850744 0.0444081
926 9 0.431161 0.878792 0.0258095
927 9 0.419703 0.855458 0.0628452
934 8 0.463787 0.819907 0.177031
935 9 0.455193 0.835122 0.159983
1006 8 0.455583 0.941119 0.0818883
1007 9 0.446291 0.94654 0.101224
1008 9 0.460344 0.911577 0.0901637
1042 8 0.430554 0.947664 0.132788
1043 9 0.419845 0.939383 0.125038
1044 9 0.430505 0.974883 0.15381
1102 8 0.441494 0.862219 0.132587
1103 9 0.438422 0.895337 0.134336
1104 9 0.43822 0.850033 0.102151
1106 9 0.426462 0.859902 0.173326
1288 8 0.456556 0.80027 0.0428385
862 8 0.252528 0.0114814 0.383616
953 9 0.329762 0.126662 0.249145
1111 8 0.264875 0.0914265 0.358605
1112 9 0.268509 0.113029 0.383077