LAMMPS (2 Aug 2023 - Update 3)
OMP_NUM_THREADS environment is not set. Defaulting to 1 thread. (src/comm.cpp:98)
  using 1 OpenMP thread(s) per MPI task
Loaded 1 plugins from C:\Users\nashi\AppData\Local\LAMMPS 64-bit 2Aug2023\plugins
## Input file initialization

# Initialisation
variable T equal 300

units metal
atom_style atomic
boundary p p p
pair_style airebo 2.5 1 1

## Use of AIREBO potential

# System definition
read_data cnt_atom.data
Reading data file ...
  orthogonal box = (-40 -40 -12.130411) to (40 40 67.869589)
  1 by 1 by 1 MPI processor grid
  reading atoms ...
  700 atoms
  read_data CPU = 0.005 seconds
pair_coeff * * CH.airebo C
Reading airebo potential file CH.airebo with DATE: 2011-10-25

change_box all x final -40 40 y final -40 40 z final -60 60
Changing box ...
  orthogonal box = (-40 -40 -12.130411) to (40 40 67.869589)
  orthogonal box = (-40 -40 -12.130411) to (40 40 67.869589)
  orthogonal box = (-40 -40 -60) to (40 40 60)

group carbon_atoms type 1
700 atoms in group carbon_atoms
variable carbon_xcm equal -1*xcm(carbon_atoms,x)
variable carbon_ycm equal -1*xcm(carbon_atoms,y)
variable carbon_zcm equal -1*xcm(carbon_atoms,z)
displace_atoms carbon_atoms move ${carbon_xcm} ${carbon_ycm} ${carbon_zcm}
displace_atoms carbon_atoms move 8.45130634422529e-18 ${carbon_ycm} ${carbon_zcm}
displace_atoms carbon_atoms move 8.45130634422529e-18 1.0914862143567e-15 ${carbon_zcm}
displace_atoms carbon_atoms move 8.45130634422529e-18 1.0914862143567e-15 -27.869588464286
Displacing atoms ...

variable zmax equal bound(carbon_atoms,zmax)-0.5
variable zmin equal bound(carbon_atoms,zmin)+0.5
region rtop block INF INF INF INF ${zmax} INF
region rtop block INF INF INF INF 27.369589535714 INF
region rbot block INF INF INF INF INF ${zmin}
region rbot block INF INF INF INF INF -27.369588464286
region rmid block INF INF INF INF ${zmin} ${zmax}
region rmid block INF INF INF INF -27.369588464286 ${zmax}
region rmid block INF INF INF INF -27.369588464286 27.369589535714

group carbon_top region rtop
10 atoms in group carbon_top
group carbon_bot region rbot
10 atoms in group carbon_bot
group carbon_mid region rmid
680 atoms in group carbon_mid

variable zmax_del equal ${zmax}-2
variable zmax_del equal 27.369589535714-2
variable zmin_del equal ${zmin}+2
variable zmin_del equal -27.369588464286+2
region rdel block INF INF INF INF ${zmin_del} ${zmax_del}
region rdel block INF INF INF INF -25.369588464286 ${zmax_del}
region rdel block INF INF INF INF -25.369588464286 25.369589535714
group rdel region rdel
630 atoms in group rdel
delete_atoms random fraction 0.02 no rdel NULL 482793
Deleted 10 atoms, new total = 690

reset_atoms id sort yes
Resetting atom IDs ...
Neighbor list info ...
  update: every = 1 steps, delay = 0 steps, check = yes
  max neighbors/atom: 2000, page size: 100000
  master list distance cutoff = 10.5
  ghost atom cutoff = 10.5
  binsize = 5.25, bins = 16 16 23
  1 neighbor lists, perpetual/occasional/extra = 1 0 0
  (1) pair airebo, perpetual
      attributes: full, newton on, ghost
      pair build: full/bin/ghost
      stencil: full/ghost/bin/3d
      bin: standard
velocity carbon_mid create ${T} 48455 mom yes rot yes
velocity carbon_mid create 300 48455 mom yes rot yes
fix mynve all nve
compute Tmid carbon_mid temp
fix myber carbon_mid temp/berendsen ${T} ${T} 0.1
fix myber carbon_mid temp/berendsen 300 ${T} 0.1
fix myber carbon_mid temp/berendsen 300 300 0.1
fix_modify myber temp Tmid


## Start the simulation
fix mysf1 carbon_bot setforce 0 0 0
fix mysf2 carbon_top setforce 0 0 0
velocity carbon_bot set 0 0 0
velocity carbon_top set 0 0 0

variable L equal xcm(carbon_top,z)-xcm(carbon_bot,z)
fix at1 all ave/time 10 10 100 v_L file output_cnt_length.dat
fix at2 all ave/time 10 10 100 f_mysf1[1] f_mysf2[1]     file output_edge_force.dat

dump mydmp all atom 1000 dump.lammpstrj

thermo 100
thermo_modify temp Tmid
WARNING: Temperature for thermo pressure is not for group all (src/thermo.cpp:527)

timestep 0.0005
run 5000
Per MPI rank memory allocation (min/avg/max) = 4.309 | 4.309 | 4.309 Mbytes
   Step          Temp          E_pair         E_mol          TotEng         Press     
         0   300           -4934.7812      0             -4908.8387     -650.52378    
       100   272.9119      -4929.7936      0             -4906.1935     -129.47363    
       200   261.54089     -4927.0713      0             -4904.4546     -205.14043    
       300   268.09019     -4926.2048      0             -4903.0217     -466.48737    
       400   270.52394     -4925.434       0             -4902.0404     -200.05432    
       500   277.23607     -4925.1028      0             -4901.1288     -167.24705    
       600   293.78536     -4925.9726      0             -4900.5675     -469.35501    
       700   298.93559     -4925.7421      0             -4899.8916     -245.00967    
       800   287.83415     -4924.4731      0             -4899.5826     -153.04378    
       900   288.55616     -4924.1353      0             -4899.1824     -414.04347    
      1000   303.38112     -4925.1445      0             -4898.9096     -293.70859    
      1100   298.51038     -4924.6848      0             -4898.8711     -201.2932     
      1200   294.94663     -4924.1913      0             -4898.6858     -351.00957    
      1300   293.21274     -4924.0195      0             -4898.6639     -286.18817    
      1400   300.18486     -4924.414       0             -4898.4556     -195.08931    
      1500   289.77259     -4923.4891      0             -4898.431      -326.44347    
      1600   312.49216     -4925.3189      0             -4898.2962     -321.09664    
      1700   293.13217     -4923.6729      0             -4898.3242     -249.89978    
      1800   302.30537     -4924.4975      0             -4898.3556     -274.74942    
      1900   295.6708      -4923.8151      0             -4898.247      -310.25602    
      2000   306.98195     -4924.7374      0             -4898.1911     -246.40803    
      2100   294.55751     -4923.6601      0             -4898.1882     -286.36033    
      2200   303.36938     -4924.4785      0             -4898.2446     -325.26964    
      2300   294.17924     -4923.6969      0             -4898.2577     -232.22138    
      2400   292.75338     -4923.5396      0             -4898.2237     -261.29258    
      2500   310.93425     -4925.0628      0             -4898.1747     -342.49115    
      2600   309.63664     -4925.1169      0             -4898.3411     -233.91038    
      2700   311.26762     -4925.1882      0             -4898.2713     -253.03647    
      2800   295.40798     -4923.8368      0             -4898.2914     -323.15473    
      2900   301.54902     -4924.1671      0             -4898.0906     -267.45481    
      3000   295.66114     -4923.7896      0             -4898.2223     -245.76075    
      3100   291.02275     -4923.2973      0             -4898.1311     -336.90323    
      3200   301.08919     -4924.1211      0             -4898.0844     -272.14812    
      3300   296.5696      -4923.7929      0             -4898.147      -255.11033    
      3400   299.02519     -4923.9922      0             -4898.134      -315.29093    
      3500   297.37567     -4923.9263      0             -4898.2107     -259.11441    
      3600   289.68614     -4923.1972      0             -4898.1466     -289.69712    
      3700   297.88074     -4923.8225      0             -4898.0632     -310.55269    
      3800   298.68046     -4923.9765      0             -4898.1481     -248.07286    
      3900   299.16921     -4924.0227      0             -4898.152      -264.62981    
      4000   295.33197     -4923.7885      0             -4898.2496     -328.70237    
      4100   298.87646     -4924.0648      0             -4898.2194     -211.06423    
      4200   294.53974     -4923.5332      0             -4898.0629     -259.15331    
      4300   303.51103     -4924.3899      0             -4898.1437     -380.77614    
      4400   297.20981     -4923.8565      0             -4898.1553     -196.2632     
      4500   301.3627      -4924.3108      0             -4898.2504     -226.36027    
      4600   287.65003     -4922.996       0             -4898.1214     -358.46634    
      4700   300.26155     -4924.1519      0             -4898.1868     -234.52369    
      4800   306.36042     -4924.5952      0             -4898.1027     -258.89273    
      4900   304.45864     -4924.4853      0             -4898.1572     -325.67693    
      5000   290.1644      -4923.3156      0             -4898.2236     -266.98728    
Loop time of 14.8166 on 1 procs for 5000 steps with 690 atoms

Performance: 14.578 ns/day, 1.646 hours/ns, 337.459 timesteps/s, 232.847 katom-step/s
31.6% CPU use with 1 MPI tasks x 1 OpenMP threads

MPI task timing breakdown:
Section |  min time  |  avg time  |  max time  |%varavg| %total
---------------------------------------------------------------
Pair    | 14.729     | 14.729     | 14.729     |   0.0 | 99.41
Neigh   | 0.000903   | 0.000903   | 0.000903   |   0.0 |  0.01
Comm    | 0.00187    | 0.00187    | 0.00187    |   0.0 |  0.01
Output  | 0.026576   | 0.026576   | 0.026576   |   0.0 |  0.18
Modify  | 0.049985   | 0.049985   | 0.049985   |   0.0 |  0.34
Other   |            | 0.008231   |            |       |  0.06

Nlocal:            690 ave         690 max         690 min
Histogram: 1 0 0 0 0 0 0 0 0 0
Nghost:              0 ave           0 max           0 min
Histogram: 1 0 0 0 0 0 0 0 0 0
Neighs:              0 ave           0 max           0 min
Histogram: 1 0 0 0 0 0 0 0 0 0
FullNghs:       108102 ave      108102 max      108102 min
Histogram: 1 0 0 0 0 0 0 0 0 0

Total # of neighbors = 108102
Ave neighs/atom = 156.66957
Neighbor list builds = 1
Dangerous builds = 0

## Launch the deformation
# 0.15 A/ps = 15 m/s
velocity carbon_top set 0 0 0.15
run 280000
Per MPI rank memory allocation (min/avg/max) = 5.335 | 5.335 | 5.335 Mbytes
   Step          Temp          E_pair         E_mol          TotEng         Press     
      5000   290.1644      -4923.3156      0             -4898.2236     -266.98728    
      5100   297.00648     -4923.7812      0             -4898.0976     -268.92157    
      5200   291.54635     -4923.1811      0             -4897.9696     -290.77003    
      5300   302.95958     -4924.1984      0             -4897.9999     -210.71504    
      5400   301.57034     -4923.995       0             -4897.9167     -312.6966     
      5500   316.14021     -4925.274       0             -4897.9358     -334.27028    
      5600   301.57141     -4924.0596      0             -4897.9812     -259.92633    
      5700   307.24605     -4924.3633      0             -4897.7942     -265.47067    
      5800   288.37305     -4922.5808      0             -4897.6438     -358.71031    
      5900   288.87584     -4922.5859      0             -4897.6054     -295.49422    
      6000   296.46361     -4923.179       0             -4897.5423     -252.78037    
      6100   300.51364     -4923.6035      0             -4897.6165     -371.75243    
      6200   288.87931     -4922.4621      0             -4897.4812     -312.91018    
      6300   289.53684     -4922.3036      0             -4897.2659     -278.57064    
      6400   299.00981     -4923.0523      0             -4897.1954     -347.76546    
      6500   308.5664      -4923.9571      0             -4897.2738     -322.11075    
      6600   303.47351     -4923.496       0             -4897.2531     -306.23624    
      6700   301.05601     -4923.2119      0             -4897.1781     -379.51624    
      6800   287.4521      -4921.9227      0             -4897.0652     -325.06193    
      6900   290.48        -4922.0909      0             -4896.9716     -291.71027    
      7000   300.20809     -4922.9268      0             -4896.9663     -354.55555    
      7100   298.11638     -4922.7158      0             -4896.9362     -355.47621    
      7200   304.20216     -4923.2086      0             -4896.9027     -303.6362     
      7300   291.19907     -4921.9999      0             -4896.8185     -336.08853    
      7400   296.14554     -4922.2113      0             -4896.6021     -341.8733     
      7500   301.19279     -4922.6549      0             -4896.6093     -290.30324    
      7600   307.41076     -4923.1573      0             -4896.5739     -419.42196    
      7700   295.65138     -4922.0811      0             -4896.5147     -356.28573    
      7800   305.31739     -4922.9114      0             -4896.5091     -276.76422    
      7900   306.04026     -4922.859       0             -4896.3941     -410.3421     
      8000   296.67416     -4921.9174      0             -4896.2625     -384.60592    
      8100   293.22449     -4921.565       0             -4896.2084     -268.3613     
      8200   287.93972     -4921.0411      0             -4896.1415     -419.80213    
      8300   302.28264     -4922.2087      0             -4896.0688     -389.04542    
      8400   293.09357     -4921.4528      0             -4896.1076     -256.81274    
      8500   295.86105     -4921.4978      0             -4895.9132     -425.30532    
      8600   312.24141     -4922.8054      0             -4895.8043     -398.5408     
      8700   300.98117     -4921.9144      0             -4895.887      -287.46451    
      8800   298.78545     -4921.6369      0             -4895.7994     -436.15066    
      8900   310.22809     -4922.542       0             -4895.715      -435.91086    
      9000   308.26244     -4922.2221      0             -4895.5651     -302.8333     
      9100   299.71493     -4921.5167      0             -4895.5988     -402.58363    
      9200   298.46048     -4921.1978      0             -4895.3884     -440.38419    
      9300   298.28771     -4921.21        0             -4895.4155     -289.94978    
      9400   301.38076     -4921.4496      0             -4895.3877     -416.71584    
      9500   300.83881     -4921.2226      0             -4895.2075     -474.29174    
      9600   303.52976     -4921.3754      0             -4895.1276     -337.69442    
      9700   304.2594      -4921.3099      0             -4894.9991     -373.48873    
      9800   312.44693     -4921.9561      0             -4894.9372     -457.97312    
      9900   296.671       -4920.5892      0             -4894.9346     -399.38562    
     10000   308.38629     -4921.6066      0             -4894.9389     -416.59324    
     10100   314.44576     -4921.8171      0             -4894.6253     -432.3901     
     10200   297.7434      -4920.3452      0             -4894.5978     -358.07259    
     10300   297.04431     -4920.2849      0             -4894.5979     -479.33769    
     10400   300.23744     -4920.4425      0             -4894.4794     -419.60542    
     10500   300.92041     -4920.5189      0             -4894.4968     -371.00433    
     10600   302.84867     -4920.5739      0             -4894.385      -467.57594    
     10700   299.94415     -4920.114       0             -4894.1763     -462.75941    
     10800   298.26045     -4920.0036      0             -4894.2116     -368.78476    
     10900   308.55701     -4920.8317      0             -4894.1492     -452.25777    
     11000   292.21281     -4919.2882      0             -4894.019      -467.99609    
     11100   303.52624     -4920.2631      0             -4894.0156     -427.61482    
     11200   309.55609     -4920.6051      0             -4893.8362     -449.77367    
     11300   303.56932     -4919.9401      0             -4893.6889     -457.2158     
     11400   300.59694     -4919.6566      0             -4893.6625     -464.17967    
     11500   300.79921     -4919.6374      0             -4893.6258     -383.08732    
     11600   299.20641     -4919.4171      0             -4893.5433     -481.12387    
     11700   283.71636     -4917.7763      0             -4893.2419     -477.60441    
     11800   304.63254     -4919.5812      0             -4893.2381     -419.49733    
     11900   300.09343     -4919.1864      0             -4893.2358     -492.34646    
     12000   305.61718     -4919.5496      0             -4893.1214     -468.34565    
     12100   300.16009     -4919.0928      0             -4893.1364     -425.84205    
     12200   301.21403     -4919.0541      0             -4893.0066     -491.56979    
     12300   291.14985     -4917.9706      0             -4892.7934     -458.03762    
     12400   308.35046     -4919.5257      0             -4892.861      -436.19987    
     12500   315.76107     -4919.9605      0             -4892.6551     -526.5482     
     12600   304.22455     -4918.9572      0             -4892.6494     -482.74001    
     12700   302.2836      -4918.7354      0             -4892.5954     -434.98258    
     12800   302.70934     -4918.5483      0             -4892.3715     -528.70335    
     12900   307.76705     -4918.8298      0             -4892.2157     -481.29657    
     13000   303.35744     -4918.4443      0             -4892.2115     -485.96549    
     13100   303.77465     -4918.431       0             -4892.1621     -547.98715    
     13200   293.01785     -4917.3429      0             -4892.0041     -474.93757    
     13300   297.40719     -4917.5868      0             -4891.8685     -483.65454    
     13400   299.06303     -4917.6328      0             -4891.7713     -560.18555    
     13500   294.01728     -4917.1094      0             -4891.6843     -487.82421    
     13600   298.40703     -4917.5042      0             -4891.6994     -455.53803    
     13700   292.44427     -4916.9038      0             -4891.6147     -555.01991    
     13800   305.58118     -4917.8379      0             -4891.4127     -492.20871    
     13900   308.86274     -4918.0538      0             -4891.3449     -476.68694    
     14000   307.81716     -4917.786       0             -4891.1675     -553.26927    
     14100   308.12803     -4917.766       0             -4891.1206     -530.40691    
     14200   287.44627     -4915.9809      0             -4891.124      -511.94375    
     14300   305.91278     -4917.3543      0             -4890.9005     -527.48863    
     14400   307.20871     -4917.4532      0             -4890.8873     -527.15501    
     14500   308.03009     -4917.4085      0             -4890.7716     -518.66229    
     14600   296.78627     -4916.3215      0             -4890.6569     -582.60858    
     14700   300.43532     -4916.5027      0             -4890.5225     -522.4493     
     14800   298.40611     -4916.1914      0             -4890.3868     -503.23524    
     14900   298.57665     -4916.003       0             -4890.1835     -585.11708    
     15000   297.4284      -4915.7498      0             -4890.0296     -539.15614    
     15100   293.92624     -4915.4525      0             -4890.0352     -538.24771    
     15200   300.46143     -4916.0151      0             -4890.0327     -588.11889    
     15300   302.34252     -4916.0275      0             -4889.8824     -556.36895    
     15400   300.51554     -4915.6992      0             -4889.7121     -541.41503    
     15500   306.23444     -4916.138       0             -4889.6564     -556.35324    
     15600   306.85402     -4916.0413      0             -4889.5061     -574.92339    
     15700   322.12835     -4917.3639      0             -4889.5079     -547.41685    
     15800   298.88405     -4915.2041      0             -4889.3581     -571.96089    
     15900   310.66313     -4916.139       0             -4889.2744     -577.83563    
     16000   301.66754     -4915.1124      0             -4889.0257     -548.05001    
     16100   297.72946     -4914.7996      0             -4889.0534     -580.06003    
     16200   305.41267     -4915.3586      0             -4888.9481     -611.42779    
     16300   306.64962     -4915.2996      0             -4888.7821     -557.84506    
     16400   299.49591     -4914.5842      0             -4888.6853     -558.7533     
     16500   298.18355     -4914.3369      0             -4888.5515     -640.74875    
     16600   301.35049     -4914.5002      0             -4888.4409     -605.30363    
     16700   303.90087     -4914.6896      0             -4888.4098     -575.74417    
     16800   298.72781     -4914.1135      0             -4888.281      -612.62626    
     16900   308.89624     -4914.7701      0             -4888.0583     -587.72087    
     17000   292.17114     -4913.2066      0             -4887.9411     -588.54121    
     17100   301.94391     -4913.9768      0             -4887.8662     -619.33504    
     17200   301.61651     -4913.8844      0             -4887.8021     -567.9742     
     17300   293.95574     -4913.1454      0             -4887.7255     -641.50319    
     17400   313.62389     -4914.7064      0             -4887.5858     -611.84954    
     17500   289.52238     -4912.4641      0             -4887.4277     -579.81744    
     17600   299.70607     -4913.2246      0             -4887.3075     -652.02615    
     17700   300.32138     -4913.1428      0             -4887.1725     -598.44524    
     17800   301.08329     -4913.148       0             -4887.1118     -577.52232    
     17900   289.82683     -4912.0927      0             -4887.0299     -650.75517    
     18000   301.45633     -4912.8392      0             -4886.7707     -645.02867    
     18100   310.23958     -4913.5342      0             -4886.7063     -584.07439    
     18200   298.87657     -4912.4367      0             -4886.5914     -636.18867    
     18300   294.25468     -4911.8769      0             -4886.4312     -649.47547    
     18400   299.20379     -4912.2477      0             -4886.374      -615.19546    
     18500   308.70096     -4912.8875      0             -4886.1926     -658.1511     
     18600   307.71866     -4912.6829      0             -4886.0729     -613.57249    
     18700   292.45948     -4911.175       0             -4885.8845     -634.09514    
     18800   296.67648     -4911.5105      0             -4885.8554     -647.06126    
     18900   289.88664     -4910.81        0             -4885.742      -673.31559    
     19000   290.45433     -4910.7423      0             -4885.6252     -645.34111    
     19100   295.31236     -4910.9573      0             -4885.4202     -658.23797    
     19200   303.47852     -4911.618       0             -4885.3747     -677.39419    
     19300   304.99301     -4911.592       0             -4885.2177     -650.33909    
     19400   301.85577     -4911.2479      0             -4885.1449     -669.41956    
     19500   306.27414     -4911.3722      0             -4884.8871     -673.53087    
     19600   289.33574     -4909.8172      0             -4884.7968     -660.1122     
     19700   302.46115     -4910.7188      0             -4884.5634     -669.43272    
     19800   307.11985     -4911.0434      0             -4884.4852     -682.72149    
     19900   300.31048     -4910.4637      0             -4884.4944     -651.02796    
     20000   302.09048     -4910.4666      0             -4884.3434     -710.93613    
     20100   300.66425     -4910.0913      0             -4884.0913     -665.02223    
     20200   301.91646     -4910.1208      0             -4884.0126     -642.52931    
     20300   299.6389      -4909.8294      0             -4883.9181     -734.94542    
     20400   304.78374     -4910.106       0             -4883.7498     -709.73934    
     20500   313.78373     -4910.8826      0             -4883.7481     -635.64697    
     20600   298.70568     -4909.3606      0             -4883.5301     -698.38302    
     20700   311.60625     -4910.312       0             -4883.3659     -700.70472    
     20800   292.91341     -4908.6229      0             -4883.2932     -693.86019    
     20900   312.8256      -4910.2419      0             -4883.1903     -715.49422    
     21000   291.34362     -4908.1237      0             -4882.9297     -720.75455    
     21100   297.75367     -4908.5785      0             -4882.8303     -676.83908    
     21200   311.35299     -4909.5419      0             -4882.6176     -695.76272    
     21300   306.6583      -4909.0679      0             -4882.5496     -740.89038    
     21400   290.8242      -4907.5159      0             -4882.3669     -696.69835    
     21500   295.84596     -4908.015       0             -4882.4317     -708.39962    
     21600   297.60916     -4907.927       0             -4882.1913     -764.38756    
     21700   289.01046     -4906.9984      0             -4882.0062     -663.14767    
     21800   292.40301     -4907.2624      0             -4881.9769     -742.93922    
     21900   301.74789     -4907.9029      0             -4881.8093     -756.79861    
     22000   297.25777     -4907.3087      0             -4881.6033     -715.01317    
     22100   296.60372     -4907.2111      0             -4881.5623     -740.57016    
     22200   297.48695     -4907.0966      0             -4881.3714     -759.26913    
     22300   305.90526     -4907.58        0             -4881.1268     -698.01892    
     22400   296.98914     -4906.8453      0             -4881.1631     -740.65531    
     22500   285.2426      -4905.682       0             -4881.0156     -762.94538    
     22600   296.96357     -4906.5421      0             -4880.8621     -740.55834    
     22700   311.3846      -4907.6333      0             -4880.7064     -732.74044    
     22800   311.66664     -4907.4971      0             -4880.5457     -783.30933    
     22900   307.09747     -4906.898       0             -4880.3418     -744.47875    
     23000   301.28759     -4906.3662      0             -4880.3123     -757.73662    
     23100   300.85535     -4906.0598      0             -4880.0433     -767.13493    
     23200   297.67446     -4905.6545      0             -4879.9131     -738.93884    
     23300   299.20951     -4905.6514      0             -4879.7773     -779.82244    
     23400   296.5106      -4905.2888      0             -4879.6481     -779.02854    
     23500   308.19597     -4906.2011      0             -4879.5498     -710.93052    
     23600   301.85646     -4905.5412      0             -4879.4381     -813.46559    
     23700   298.616       -4904.9794      0             -4879.1566     -811.13002    
     23800   305.34653     -4905.5087      0             -4879.1039     -714.85238    
     23900   301.5528      -4904.9958      0             -4878.919      -776.62073    
     24000   300.85481     -4904.8149      0             -4878.7985     -862.76638    
     24100   294.3048      -4904.0775      0             -4878.6275     -782.55626    
     24200   287.83349     -4903.3557      0             -4878.4653     -776.9471     
     24300   299.404       -4904.1743      0             -4878.2833     -814.18035    
     24400   301.30037     -4904.2191      0             -4878.1642     -773.5384     
     24500   300.04387     -4903.9833      0             -4878.037      -778.60732    
     24600   294.27826     -4903.2919      0             -4877.8442     -796.32914    
     24700   296.27985     -4903.2904      0             -4877.6696     -804.24121    
     24800   302.24082     -4903.716       0             -4877.5797     -785.79131    
     24900   312.9544      -4904.4813      0             -4877.4186     -814.49302    
     25000   301.51044     -4903.2241      0             -4877.151      -779.09813    
     25100   296.8728      -4902.7801      0             -4877.1081     -809.6493     
     25200   286.58527     -4901.7267      0             -4876.9443     -854.98684    
     25300   298.82074     -4902.6032      0             -4876.7627     -798.88387    
     25400   302.48628     -4902.8216      0             -4876.6641     -819.64779    
     25500   302.64095     -4902.6726      0             -4876.5017     -833.1254     
     25600   315.44678     -4903.5783      0             -4876.3001     -804.85265    
     25700   306.33066     -4902.6463      0             -4876.1564     -826.3823     
     25800   300.69839     -4901.9966      0             -4875.9937     -863.80621    
     25900   309.30485     -4902.5866      0             -4875.8395     -814.51682    
     26000   301.00936     -4901.753       0             -4875.7232     -804.81926    
     26100   295.23832     -4901.0618      0             -4875.5311     -872.94182    
     26200   290.65224     -4900.5527      0             -4875.4186     -822.08936    
     26300   295.72705     -4900.8153      0             -4875.2422     -805.75102    
     26400   303.89072     -4901.3717      0             -4875.0927     -868.56958    
     26500   295.65906     -4900.4067      0             -4874.8396     -865.35249    
     26600   289.98309     -4899.7136      0             -4874.6373     -820.40726    
     26700   297.56637     -4900.2435      0             -4874.5114     -843.17286    
     26800   303.73441     -4900.7494      0             -4874.4839     -866.98867    
     26900   307.78705     -4900.8194      0             -4874.2035     -837.3018     
     27000   302.90227     -4900.1761      0             -4873.9827     -862.93182    
     27100   301.85274     -4899.9943      0             -4873.8916     -881.03601    
     27200   307.8259      -4900.3923      0             -4873.773      -869.37127    
     27300   289.21114     -4898.6484      0             -4873.6388     -847.72158    
     27400   303.16765     -4899.6995      0             -4873.4831     -877.86446    
     27500   308.07044     -4899.9278      0             -4873.2874     -903.12216    
     27600   296.45674     -4898.6705      0             -4873.0344     -849.4506     
     27700   291.50924     -4898.0708      0             -4872.8625     -875.14243    
     27800   294.04789     -4898.2278      0             -4872.8        -895.70744    
     27900   299.37516     -4898.502       0             -4872.6135     -877.66074    
     28000   297.44896     -4898.164       0             -4872.4421     -866.3045     
     28100   316.2404      -4899.624       0             -4872.2771     -913.02037    
     28200   301.44991     -4898.2209      0             -4872.153      -913.81146    
     28300   304.11914     -4898.2555      0             -4871.9568     -863.12184    
     28400   309.301       -4898.4984      0             -4871.7516     -889.41886    
     28500   299.35116     -4897.36        0             -4871.4736     -941.45796    
     28600   293.63326     -4896.7221      0             -4871.3301     -891.83391    
     28700   298.44834     -4897.0618      0             -4871.2535     -869.913      
     28800   300.27314     -4897.1023      0             -4871.1362     -925.72982    
     28900   302.11672     -4897.1043      0             -4870.9787     -925.38044    
     29000   296.1635      -4896.3232      0             -4870.7124     -883.20542    
     29100   316.18232     -4897.8489      0             -4870.5071     -918.75336    
     29200   299.58235     -4896.235       0             -4870.3286     -946.71505    
     29300   303.80313     -4896.4694      0             -4870.1981     -860.06128    
     29400   302.02024     -4896.151       0             -4870.0338     -957.08597    
     29500   299.88298     -4895.7446      0             -4869.8122     -921.51643    
     29600   301.68338     -4895.6521      0             -4869.5641     -893.98536    
     29700   296.76123     -4895.0869      0             -4869.4244     -957.98482    
     29800   307.49701     -4895.9823      0             -4869.3915     -952.11931    
     29900   302.90697     -4895.3547      0             -4869.1608     -884.51867    
     30000   310.11088     -4895.7831      0             -4868.9663     -966.76571    
     30100   304.00133     -4895.0398      0             -4868.7513     -955.40167    
     30200   300.61823     -4894.6192      0             -4868.6233     -886.2821     
     30300   292.48398     -4893.7794      0             -4868.4868     -996.75854    
     30400   297.81456     -4893.9961      0             -4868.2426     -955.68239    
     30500   302.80801     -4894.2041      0             -4868.0188     -932.45814    
     30600   292.85287     -4893.2021      0             -4867.8777     -950.70925    
     30700   299.55564     -4893.5891      0             -4867.6851     -977.30194    
     30800   290.3948      -4892.744       0             -4867.6321     -925.55714    
     30900   318.04679     -4894.8747      0             -4867.3716     -985.9747     
     31000   302.61883     -4893.2986      0             -4867.1296     -984.07472    
     31100   300.94551     -4893.0197      0             -4866.9954     -911.6076     
     31200   319.00532     -4894.4031      0             -4866.8171     -1006.3514    
     31300   298.60007     -4892.4695      0             -4866.648      -962.52514    
     31400   300.90609     -4892.4125      0             -4866.3916     -931.2583     
     31500   289.81878     -4891.326       0             -4866.264      -999.21896    
     31600   310.36562     -4892.863       0             -4866.0241     -983.21613    
     31700   313.8415      -4893.1432      0             -4866.0037     -936.9461     
     31800   301.07227     -4891.7705      0             -4865.7353     -998.85151    
     31900   295.85125     -4891.126       0             -4865.5423     -1030.9604    
     32000   307.15859     -4891.8992      0             -4865.3376     -942.28784    
     32100   295.23814     -4890.695       0             -4865.1643     -994.49986    
     32200   298.21747     -4890.8044      0             -4865.0161     -1000.3127    
     32300   301.83716     -4890.8979      0             -4864.7965     -954.2007     
     32400   311.81757     -4891.5928      0             -4864.6284     -1006.2713    
     32500   307.44878     -4890.9674      0             -4864.3807     -999.41854    
     32600   302.02365     -4890.403       0             -4864.2855     -979.89331    
     32700   297.99217     -4889.9038      0             -4864.1349     -1034.0048    
     32800   304.01112     -4890.1978      0             -4863.9084     -1025.7913    
     32900   299.7587      -4889.5767      0             -4863.6551     -984.62836    
     33000   282.50854     -4887.8952      0             -4863.4653     -1034.1679    
     33100   287.91314     -4887.9991      0             -4863.1018     -1002.2843    
     33200   305.53442     -4889.5306      0             -4863.1095     -1009.1492    
     33300   305.99695     -4889.4353      0             -4862.9742     -1046.7072    
     33400   294.24018     -4888.1386      0             -4862.6942     -1036.4401    
     33500   294.49008     -4888.0243      0             -4862.5582     -970.71346    
     33600   301.88437     -4888.4329      0             -4862.3275     -1037.37      
     33700   302.85272     -4888.3705      0             -4862.1813     -1066.2349    
     33800   293.38024     -4887.3355      0             -4861.9655     -1006.312     
     33900   290.30554     -4886.8624      0             -4861.7582     -1028.2443    
     34000   292.28496     -4886.8415      0             -4861.5662     -1039.9902    
     34100   305.64091     -4887.7804      0             -4861.35       -1060.8447    
     34200   300.79407     -4887.0546      0             -4861.0435     -1031.1841    
     34300   300.38071     -4887.0108      0             -4861.0354     -1037.9338    
     34400   308.1413      -4887.4363      0             -4860.7898     -1066.5636    
     34500   297.96704     -4886.3594      0             -4860.5927     -1051.4224    
     34600   314.21106     -4887.6553      0             -4860.4839     -1035.7821    
     34700   309.62104     -4886.9283      0             -4860.1538     -1042.3476    
     34800   293.43541     -4885.2719      0             -4859.8971     -1092.0629    
     34900   308.41227     -4886.4588      0             -4859.7888     -1043.3121    
     35000   296.20227     -4885.1629      0             -4859.5488     -1041.7818    
     35100   303.91718     -4885.7065      0             -4859.4252     -1051.5315    
     35200   302.99349     -4885.4009      0             -4859.1995     -1066.6436    
     35300   292.14537     -4884.227       0             -4858.9637     -1091.5308    
     35400   320.37984     -4886.5218      0             -4858.8169     -1019.4787    
     35500   295.93925     -4884.2103      0             -4858.619      -1050.4047    
     35600   301.73148     -4884.5157      0             -4858.4235     -1108.1789    
     35700   297.41429     -4883.9299      0             -4858.2109     -1061.3315    
     35800   295.31993     -4883.5097      0             -4857.9719     -1044.1939    
     35900   303.0764      -4883.9641      0             -4857.7556     -1114.3049    
     36000   295.71166     -4883.1577      0             -4857.586      -1064.5036    
     36100   295.69589     -4882.9463      0             -4857.376      -1076.0603    
     36200   290.28696     -4882.227       0             -4857.1244     -1094.9983    
     36300   292.03667     -4882.1494      0             -4856.8955     -1086.7946    
     36400   315.83448     -4884.0475      0             -4856.7357     -1084.2929    
     36500   301.61925     -4882.6327      0             -4856.5501     -1116.5257    
     36600   305.53344     -4882.8198      0             -4856.3988     -1101.1758    
     36700   300.04061     -4882.0484      0             -4856.1024     -1112.0857    
     36800   306.15031     -4882.2911      0             -4855.8167     -1096.6885    
     36900   298.21982     -4881.4133      0             -4855.6247     -1076.6249    
     37000   300.42848     -4881.4919      0             -4855.5123     -1134.9295    
     37100   294.37011     -4880.8503      0             -4855.3946     -1138.7798    
     37200   294.80059     -4880.6744      0             -4855.1815     -1084.8486    
     37300   305.25905     -4881.3297      0             -4854.9324     -1127.4565    
     37400   298.30447     -4880.474       0             -4854.6782     -1133.3885    
     37500   303.36005     -4880.7141      0             -4854.481      -1069.3867    
     37600   294.63528     -4879.6967      0             -4854.2181     -1161.8021    
     37700   296.6858      -4879.6733      0             -4854.0174     -1137.3032    
     37800   303.96449     -4880.1436      0             -4853.8582     -1091.4759    
     37900   300.465       -4879.6177      0             -4853.6349     -1136.5845    
     38000   295.597       -4879.0353      0             -4853.4736     -1131.7116    
     38100   297.88136     -4878.9192      0             -4853.1599     -1130.4333    
     38200   287.55933     -4877.8328      0             -4852.9661     -1136.4453    
     38300   301.15588     -4878.8265      0             -4852.784      -1148.3377    
     38400   291.541       -4877.7806      0             -4852.5695     -1130.6858    
     38500   306.17565     -4878.7804      0             -4852.3039     -1151.62      
     38600   293.75626     -4877.4263      0             -4852.0238     -1155.8342    
     38700   290.98145     -4877.0825      0             -4851.9199     -1150.7599    
     38800   310.98078     -4878.6649      0             -4851.7728     -1149.184     
     38900   293.04267     -4876.8233      0             -4851.4824     -1158.6051    
     39000   299.51094     -4877.3257      0             -4851.4255     -1166.7584    
     39100   301.27087     -4877.1121      0             -4851.0597     -1159.1443    
     39200   308.50394     -4877.5382      0             -4850.8603     -1149.3234    
     39300   307.31603     -4877.2472      0             -4850.672      -1174.0782    
     39400   295.25362     -4875.9418      0             -4850.4098     -1169.5036    
     39500   300.43329     -4876.1283      0             -4850.1483     -1136.3803    
     39600   307.32567     -4876.5781      0             -4850.0021     -1172.8064    
     39700   311.49283     -4876.7588      0             -4849.8224     -1184.0623    
     39800   305.29185     -4875.9665      0             -4849.5664     -1182.7114    
     39900   292.3492      -4874.5413      0             -4849.2604     -1158.0073    
     40000   293.24118     -4874.4234      0             -4849.0654     -1168.7031    
     40100   298.37618     -4874.6486      0             -4848.8465     -1194.1888    
     40200   293.9387      -4874.0916      0             -4848.6733     -1190.4553    
     40300   301.8646      -4874.5056      0             -4848.4019     -1160.793     
     40400   302.90025     -4874.4534      0             -4848.2601     -1193.6405    
     40500   302.30507     -4874.1344      0             -4847.9926     -1219.8704    
     40600   294.08722     -4873.2336      0             -4847.8024     -1170.5908    
     40700   300.49079     -4873.592       0             -4847.607      -1208.4927    
     40800   308.99374     -4874.0261      0             -4847.3059     -1212.6522    
     40900   307.97474     -4873.8226      0             -4847.1905     -1208.8267    
     41000   299.83578     -4872.8564      0             -4846.9281     -1209.7237    
     41100   300.90097     -4872.6578      0             -4846.6374     -1177.0021    
     41200   286.60231     -4871.2358      0             -4846.4519     -1208.0707    
     41300   295.51853     -4871.7007      0             -4846.1457     -1215.0254    
     41400   306.69793     -4872.4808      0             -4845.9591     -1240.3607    
     41500   306.09866     -4872.2242      0             -4845.7543     -1197.3329    
     41600   295.99317     -4871.1698      0             -4845.5738     -1209.9491    
     41700   302.12974     -4871.4316      0             -4845.3049     -1216.0465    
     41800   304.90563     -4871.3997      0             -4845.033      -1240.8128    
     41900   293.59267     -4870.2017      0             -4844.8133     -1225.4217    
     42000   296.5902      -4870.2776      0             -4844.63       -1255.8008    
     42100   296.75686     -4870.1303      0             -4844.4683     -1219.7572    
     42200   309.51771     -4870.9461      0             -4844.1806     -1227.2812    
     42300   300.18064     -4869.8677      0             -4843.9096     -1235.7628    
     42400   298.12348     -4869.4217      0             -4843.6414     -1225.0629    
     42500   291.57187     -4868.7027      0             -4843.4891     -1248.5904    
     42600   302.18578     -4869.3821      0             -4843.2505     -1265.3105    
     42700   291.73633     -4868.2801      0             -4843.0522     -1235.8414    
     42800   301.64788     -4868.907       0             -4842.822      -1235.4001    
     42900   298.61947     -4868.3003      0             -4842.4771     -1266.0476    
     43000   298.44076     -4868.0358      0             -4842.2281     -1236.1384    
     43100   302.10461     -4868.138       0             -4842.0135     -1246.2171    
     43200   302.72285     -4868.014       0             -4841.836      -1244.7988    
     43300   295.63673     -4867.2505      0             -4841.6853     -1261.6497    
     43400   292.9666      -4866.8438      0             -4841.5095     -1250.6776    
     43500   294.68742     -4866.5715      0             -4841.0884     -1263.2019    
     43600   300.97414     -4866.9469      0             -4840.9202     -1253.1884    
     43700   304.74303     -4867.0267      0             -4840.674      -1265.5423    
     43800   303.59374     -4866.6611      0             -4840.4078     -1260.0671    
     43900   292.67784     -4865.452       0             -4840.1426     -1294.3458    
     44000   305.99684     -4866.3741      0             -4839.9131     -1295.5486    
     44100   290.90249     -4864.8473      0             -4839.6915     -1255.7847    
     44200   302.40628     -4865.6399      0             -4839.4893     -1243.8843    
     44300   303.82025     -4865.5017      0             -4839.2288     -1327.9716    
     44400   309.68991     -4865.8154      0             -4839.035      -1258.1451    
     44500   306.12447     -4865.2566      0             -4838.7845     -1279.4483    
     44600   305.94576     -4864.9824      0             -4838.5258     -1293.7199    
     44700   291.14614     -4863.3755      0             -4838.1986     -1297.4642    
     44800   295.23859     -4863.4694      0             -4837.9386     -1278.2635    
     44900   295.15416     -4863.2963      0             -4837.7729     -1287.4487    
     45000   291.25328     -4862.8303      0             -4837.6442     -1309.4474    
     45100   302.68429     -4863.6001      0             -4837.4254     -1286.0402    
     45200   305.45482     -4863.5151      0             -4837.1009     -1324.9906    
     45300   300.91662     -4862.8289      0             -4836.8071     -1315.3406    
     45400   302.77678     -4862.7922      0             -4836.6096     -1238.5982    
     45500   298.44632     -4862.2646      0             -4836.4565     -1339.4586    
     45600   302.26743     -4862.238       0             -4836.0994     -1316.1475    
     45700   305.10476     -4862.2739      0             -4835.89       -1303.4135    
     45800   287.18493     -4860.4488      0             -4835.6144     -1315.4212    
     45900   299.63846     -4861.389       0             -4835.4777     -1313.0015    
     46000   291.18958     -4860.4072      0             -4835.2266     -1337.1158    
     46100   297.99545     -4860.5994      0             -4834.8302     -1314.1974    
     46200   301.26081     -4860.6589      0             -4834.6074     -1307.483     
     46300   301.10665     -4860.4114      0             -4834.3732     -1301.9718    
     46400   299.05794     -4860.0907      0             -4834.2296     -1353.6332    
     46500   311.34323     -4860.8478      0             -4833.9244     -1340.3732    
     46600   299.0678      -4859.5384      0             -4833.6765     -1317.7557    
     46700   307.81014     -4860.0822      0             -4833.4643     -1326.3025    
     46800   296.4807      -4858.8561      0             -4833.2179     -1338.1236    
     46900   302.52482     -4859.0766      0             -4832.9157     -1335.8061    
     47000   302.3255      -4858.8411      0             -4832.6975     -1380.3285    
     47100   297.73307     -4858.2118      0             -4832.4653     -1340.8233    
     47200   306.49159     -4858.8143      0             -4832.3104     -1316.0616    
     47300   293.63448     -4857.3861      0             -4831.994      -1377.6013    
     47400   307.61741     -4858.2988      0             -4831.6976     -1349.0532    
     47500   309.46312     -4858.1598      0             -4831.3989     -1260.4805    
     47600   294.81051     -4856.7471      0             -4831.2533     -1395.8661    
     47700   293.15649     -4856.2863      0             -4830.9356     -1415.3469    
     47800   307.43991     -4857.4064      0             -4830.8205     -1305.644     
     47900   298.55247     -4856.2129      0             -4830.3956     -1329.9615    
     48000   308.58673     -4856.9214      0             -4830.2364     -1419.206     
     48100   307.81907     -4856.5546      0             -4829.9359     -1353.9333    
     48200   298.01013     -4855.515       0             -4829.7446     -1312.3983    
     48300   302.82852     -4855.6027      0             -4829.4156     -1417.6945    
     48400   305.47725     -4855.5791      0             -4829.163      -1394.9956    
     48500   291.60336     -4854.1146      0             -4828.8982     -1329.0338    
     48600   299.71071     -4854.5925      0             -4828.675      -1398.2287    
     48700   298.44058     -4854.1895      0             -4828.3819     -1369.7259    
     48800   300.23306     -4854.1299      0             -4828.1673     -1360.8543    
     48900   299.25785     -4853.7753      0             -4827.897      -1433.4248    
     49000   295.88613     -4853.1863      0             -4827.5996     -1379.172     
     49100   293.21914     -4852.6791      0             -4827.3229     -1342.3262    
     49200   308.39587     -4853.7373      0             -4827.0688     -1403.5379    
     49300   300.44449     -4852.8782      0             -4826.8972     -1404.6353    
     49400   292.37326     -4851.8162      0             -4826.5332     -1392.1173    
     49500   307.72226     -4852.94        0             -4826.3297     -1374.1132    
     49600   315.5057      -4853.4005      0             -4826.1172     -1419.6467    
     49700   301.18266     -4851.8953      0             -4825.8505     -1395.4565    
     49800   299.77244     -4851.4942      0             -4825.5713     -1403.6522    
     49900   299.56885     -4851.1583      0             -4825.2531     -1424.5376    
     50000   306.41687     -4851.5314      0             -4825.034      -1403.5565    
     50100   310.04641     -4851.5707      0             -4824.7594     -1394.3433    
     50200   301.67221     -4850.6979      0             -4824.6107     -1417.1708    
     50300   303.4786      -4850.5682      0             -4824.3248     -1425.8029    
     50400   302.65476     -4850.2927      0             -4824.1206     -1373.9537    
     50500   310.22696     -4850.5556      0             -4823.7288     -1416.543     
     50600   303.15043     -4849.712       0             -4823.497      -1427.8557    
     50700   296.10194     -4848.8422      0             -4823.2368     -1397.5998    
     50800   301.13441     -4848.9753      0             -4822.9347     -1407.8583    
     50900   290.4312      -4847.7514      0             -4822.6364     -1428.8126    
     51000   307.30313     -4848.8932      0             -4822.3192     -1436.1684    
     51100   278.96118     -4846.2797      0             -4822.1565     -1412.0623    
     51200   303.84685     -4848.1886      0             -4821.9134     -1440.2189    
     51300   300.95834     -4847.6435      0             -4821.6181     -1430.3518    
     51400   296.11567     -4846.9287      0             -4821.3221     -1424.0744    
     51500   289.71643     -4846.1664      0             -4821.1132     -1461.9927    
     51600   300.8094      -4846.8073      0             -4820.7948     -1423.9652    
     51700   297.28296     -4846.3556      0             -4820.6481     -1426.7422    
     51800   302.48107     -4846.4809      0             -4820.3238     -1468.7364    
     51900   293.82781     -4845.4749      0             -4820.0661     -1426.7864    
     52000   301.54758     -4845.9583      0             -4819.8819     -1456.9852    
     52100   299.22239     -4845.3863      0             -4819.511      -1448.0205    
     52200   297.95034     -4845.038       0             -4819.2727     -1442.4997    
     52300   303.64936     -4845.2003      0             -4818.9422     -1441.8047    
     52400   304.54028     -4844.9984      0             -4818.6633     -1453.5905    
     52500   308.84722     -4845.072       0             -4818.3644     -1450.7413    
     52600   304.31802     -4844.531       0             -4818.2151     -1426.2011    
     52700   291.13912     -4843.0384      0             -4817.8621     -1507.1553    
     52800   292.55414     -4842.8736      0             -4817.575      -1428.8715    
     52900   311.69003     -4844.3574      0             -4817.404      -1454.8518    
     53000   286.47528     -4841.8028      0             -4817.0299     -1483.6654    
     53100   301.07982     -4842.8475      0             -4816.8116     -1422.9314    
     53200   308.04157     -4843.1889      0             -4816.551      -1487.0394    
     53300   294.53227     -4841.7271      0             -4816.2574     -1498.9426    
     53400   290.9098      -4841.1591      0             -4816.0027     -1463.1831    
     53500   289.28403     -4840.8271      0             -4815.8112     -1470.017     
     53600   310.34355     -4842.2785      0             -4815.4416     -1474.5425    
     53700   288.89271     -4840.1215      0             -4815.1395     -1471.9912    
     53800   296.94293     -4840.5543      0             -4814.8762     -1489.9003    
     53900   304.1323      -4840.9484      0             -4814.6486     -1494.8595    
     54000   301.59628     -4840.4838      0             -4814.4032     -1476.5788    
     54100   306.61205     -4840.6134      0             -4814.0992     -1502.658     
     54200   307.82375     -4840.3918      0             -4813.7727     -1460.2435    
     54300   297.39062     -4839.2803      0             -4813.5634     -1497.1386    
     54400   296.81043     -4838.8902      0             -4813.2235     -1503.6684    
     54500   302.31824     -4839.1317      0             -4812.9887     -1497.8028    
     54600   295.0685      -4838.255       0             -4812.7389     -1472.1851    
     54700   299.81564     -4838.3708      0             -4812.4442     -1511.0628    
     54800   306.91549     -4838.6719      0             -4812.1314     -1526.1072    
     54900   302.38886     -4838.06        0             -4811.9109     -1517.5458    
     55000   302.77151     -4837.7946      0             -4811.6124     -1478.3646    
     55100   287.93078     -4836.2141      0             -4811.3153     -1514.6804    
     55200   295.22412     -4836.5967      0             -4811.0672     -1534.5404    
     55300   295.04963     -4836.2461      0             -4810.7317     -1494.1813    
     55400   300.63914     -4836.5301      0             -4810.5324     -1519.9579    
     55500   290.64311     -4835.3817      0             -4810.2484     -1527.443     
     55600   305.43075     -4836.385       0             -4809.9728     -1529.6321    
     55700   299.03138     -4835.4863      0             -4809.6275     -1528.1223    
     55800   304.49112     -4835.7522      0             -4809.4213     -1517.1116    
     55900   301.4808      -4835.0943      0             -4809.0238     -1543.204     
     56000   297.45559     -4834.5325      0             -4808.81       -1526.3848    
     56100   297.22401     -4834.1991      0             -4808.4967     -1520.1563    
     56200   294.53077     -4833.6674      0             -4808.1978     -1545.2153    
     56300   299.25762     -4833.8128      0             -4807.9344     -1545.1989    
     56400   298.98382     -4833.5766      0             -4807.722      -1485.9404    
     56500   309.98262     -4834.2892      0             -4807.4835     -1554.4802    
     56600   304.22598     -4833.4602      0             -4807.1523     -1576.7821    
     56700   300.4275      -4832.8239      0             -4806.8444     -1522.1761    
     56800   296.44584     -4832.1547      0             -4806.5195     -1533.32      
     56900   308.43694     -4832.8852      0             -4806.2131     -1552.3402    
     57000   290.76541     -4831.0897      0             -4805.9457     -1519.8912    
     57100   308.82949     -4832.4215      0             -4805.7155     -1565.6244    
     57200   291.82291     -4830.6472      0             -4805.4118     -1555.9469    
     57300   300.03869     -4831.0924      0             -4805.1465     -1566.4765    
     57400   300.53268     -4830.7832      0             -4804.7946     -1522.2638    
     57500   293.27723     -4829.7979      0             -4804.4367     -1572.4294    
     57600   291.16912     -4829.4269      0             -4804.2481     -1586.4636    
     57700   307.93996     -4830.6442      0             -4804.0151     -1537.2725    
     57800   294.63444     -4829.1195      0             -4803.6409     -1585.2729    
     57900   311.46762     -4830.3089      0             -4803.3748     -1560.0884    
     58000   292.73752     -4828.4236      0             -4803.1091     -1565.5321    
     58100   295.68102     -4828.3957      0             -4802.8267     -1553.3437    
     58200   308.41024     -4829.2159      0             -4802.5461     -1567.2776    
     58300   302.00097     -4828.3907      0             -4802.2752     -1589.3037    
     58400   295.45146     -4827.5297      0             -4801.9805     -1567.4407    
     58500   298.56741     -4827.5145      0             -4801.6959     -1572.6322    
     58600   300.88323     -4827.3722      0             -4801.3534     -1567.6567    
     58700   308.39033     -4827.6985      0             -4801.0305     -1575.3742    
     58800   297.19726     -4826.517       0             -4800.8169     -1607.9104    
     58900   295.99385     -4826.2218      0             -4800.6258     -1571.0599    
     59000   317.21791     -4827.7435      0             -4800.3121     -1595.5806    
     59100   294.69458     -4825.4111      0             -4799.9274     -1598.7357    
     59200   300.39858     -4825.5202      0             -4799.5432     -1557.1614    
     59300   312.31274     -4826.358       0             -4799.3508     -1614.9983    
     59400   296.46442     -4824.637       0             -4799.0002     -1586.4455    
     59500   299.68766     -4824.5902      0             -4798.6747     -1592.8964    
     59600   293.71934     -4823.8417      0             -4798.4423     -1613.3052    
     59700   297.22451     -4823.8345      0             -4798.132      -1583.4017    
     59800   291.8271      -4823.1209      0             -4797.8851     -1587.0045    
     59900   299.61404     -4823.4569      0             -4797.5478     -1623.2396    
     60000   302.32106     -4823.3187      0             -4797.1755     -1641.647     
     60100   308.46627     -4823.6654      0             -4796.9908     -1569.0454    
     60200   290.71583     -4821.796       0             -4796.6564     -1613.1642    
     60300   295.38821     -4821.9407      0             -4796.397      -1628.9402    
     60400   297.29351     -4821.793       0             -4796.0846     -1600.289     
     60500   302.70824     -4821.9515      0             -4795.7748     -1630.4829    
     60600   299.14265     -4821.36        0             -4795.4916     -1605.4612    
     60700   299.3918      -4821.1689      0             -4795.279      -1635.1858    
     60800   288.68964     -4819.8962      0             -4794.9317     -1629.667     
     60900   295.906       -4820.2046      0             -4794.6161     -1609.0998    
     61000   308.89869     -4821.0018      0             -4794.2898     -1637.3783    
     61100   304.45726     -4820.3586      0             -4794.0306     -1614.9734    
     61200   307.64163     -4820.3553      0             -4793.752      -1627.5141    
     61300   295.07063     -4819.0011      0             -4793.4848     -1622.8318    
     61400   303.60985     -4819.4797      0             -4793.2251     -1597.1276    
     61500   307.08205     -4819.4387      0             -4792.8838     -1670.6058    
     61600   303.24536     -4818.8458      0             -4792.6227     -1639.7886    
     61700   314.62304     -4819.4989      0             -4792.2919     -1610.5743    
     61800   297.29827     -4817.7222      0             -4792.0134     -1660.0548    
     61900   298.46222     -4817.6123      0             -4791.8027     -1644.2227    
     62000   297.23113     -4817.0896      0             -4791.3866     -1642.1865    
     62100   312.28931     -4818.2017      0             -4791.1965     -1626.4975    
     62200   289.34313     -4815.8476      0             -4790.8266     -1641.9237    
     62300   308.48493     -4817.1793      0             -4790.5031     -1658.8051    
     62400   305.09874     -4816.5367      0             -4790.1533     -1648.3763    
     62500   297.94734     -4815.6582      0             -4789.8932     -1643.2654    
     62600   299.34218     -4815.5003      0             -4789.6147     -1653.1825    
     62700   295.94911     -4814.8978      0             -4789.3055     -1665.95      
     62800   301.09216     -4815.0231      0             -4788.9861     -1662.6368    
     62900   306.168       -4815.1698      0             -4788.6939     -1640.2386    
     63000   285.19536     -4813.0988      0             -4788.4365     -1681.4691    
     63100   285.72366     -4812.7991      0             -4788.0911     -1625.7423    
     63200   304.36681     -4814.1571      0             -4787.837      -1657.7212    
     63300   303.47377     -4813.7149      0             -4787.472      -1708.0529    
     63400   298.46138     -4813.0298      0             -4787.2204     -1635.2882    
     63500   287.81677     -4811.8161      0             -4786.9272     -1685.7306    
     63600   302.57288     -4812.771       0             -4786.606      -1653.1605    
     63700   298.01625     -4812.0741      0             -4786.3031     -1645.7023    
     63800   294.08602     -4811.4927      0             -4786.0616     -1680.1212    
     63900   307.45596     -4812.2781      0             -4785.6909     -1663.0873    
     64000   298.03975     -4811.0873      0             -4785.3143     -1692.3268    
     64100   292.84124     -4810.4255      0             -4785.1021     -1690.4961    
     64200   307.67886     -4811.3922      0             -4784.7857     -1686.5032    
     64300   311.28577     -4811.4528      0             -4784.5343     -1686.458     
     64400   306.83421     -4810.6898      0             -4784.1563     -1676.3922    
     64500   293.84652     -4809.2559      0             -4783.8455     -1687.8954    
     64600   292.90236     -4808.8277      0             -4783.4989     -1716.9088    
     64700   300.50357     -4809.1911      0             -4783.205      -1687.3044    
     64800   304.35851     -4809.2894      0             -4782.97       -1635.849     
     64900   285.15915     -4807.299       0             -4782.6398     -1737.0068    
     65000   298.63323     -4808.1324      0             -4782.308      -1715.4048    
     65100   304.15199     -4808.3267      0             -4782.0251     -1649.197     
     65200   290.40647     -4806.8837      0             -4781.7707     -1727.9272    
     65300   291.5354      -4806.561       0             -4781.3505     -1749.7247    
     65400   306.58616     -4807.5145      0             -4781.0024     -1643.6995    
     65500   299.95344     -4806.7123      0             -4780.7738     -1708.9694    
     65600   298.46528     -4806.2888      0             -4780.479      -1758.2454    
     65700   298.80562     -4806.0036      0             -4780.1644     -1702.3236    
     65800   301.00845     -4805.8494      0             -4779.8197     -1692.2388    
     65900   299.34615     -4805.4257      0             -4779.5397     -1782.2569    
     66000   298.0279      -4804.9378      0             -4779.1658     -1679.3013    
     66100   309.35135     -4805.6201      0             -4778.869      -1726.1595    
     66200   301.19746     -4804.5308      0             -4778.4848     -1754.6486    
     66300   300.64772     -4804.2622      0             -4778.2637     -1706.258     
     66400   285.6012      -4802.5988      0             -4777.9014     -1706.8518    
     66500   297.6309      -4803.4263      0             -4777.6886     -1724.3801    
     66600   287.56277     -4802.2129      0             -4777.3459     -1718.3827    
     66700   303.5806      -4803.3334      0             -4777.0812     -1748.9318    
     66800   301.1797      -4802.8634      0             -4776.8189     -1744.9665    
     66900   308.50511     -4803.025       0             -4776.347      -1700.6973    
     67000   297.5981      -4801.8086      0             -4776.0738     -1728.2954    
     67100   303.18322     -4801.889       0             -4775.6713     -1789.8688    
     67200   300.62608     -4801.5064      0             -4775.5098     -1709.8984    
     67300   299.68776     -4801.1587      0             -4775.2432     -1721.3238    
     67400   298.04318     -4800.5581      0             -4774.7848     -1754.1441    
     67500   301.62193     -4800.5909      0             -4774.5081     -1755.0728    
     67600   309.28006     -4800.9277      0             -4774.1826     -1745.9764    
     67700   298.99351     -4799.7835      0             -4773.928      -1713.5522    
     67800   293.79876     -4798.9113      0             -4773.5051     -1785.5278    
     67900   295.81296     -4798.7778      0             -4773.1974     -1742.3414    
     68000   306.04258     -4799.4399      0             -4772.9749     -1745.5211    
     68100   297.80266     -4798.3565      0             -4772.604      -1767.0992    
     68200   302.57634     -4798.4557      0             -4772.2904     -1776.9676    
     68300   293.26052     -4797.3592      0             -4771.9995     -1747.9121    
     68400   297.29015     -4797.3556      0             -4771.6474     -1774.1219    
     68500   293.74062     -4796.7996      0             -4771.3983     -1778.5618    
     68600   300.93076     -4797.0213      0             -4770.9983     -1772.9954    
     68700   294.20547     -4796.1458      0             -4770.7044     -1750.0503    
     68800   298.8552      -4796.177       0             -4770.3335     -1765.9779    
     68900   302.82534     -4796.2771      0             -4770.0903     -1786.0418    
     69000   291.27844     -4795.0129      0             -4769.8245     -1770.9366    
     69100   297.50369     -4795.1867      0             -4769.4601     -1778.4881    
     69200   289.77922     -4794.1403      0             -4769.0816     -1811.3317    
     69300   298.2254      -4794.5632      0             -4768.7742     -1766.6851    
     69400   309.40306     -4795.156       0             -4768.4004     -1775.6579    
     69500   292.57937     -4793.3047      0             -4768.0039     -1811.7901    
     69600   305.57768     -4794.1535      0             -4767.7287     -1763.8222    
     69700   303.33186     -4793.7185      0             -4767.4879     -1802.0837    
     69800   287.47273     -4792.0284      0             -4767.1692     -1806.774     
     69900   303.22753     -4793.1108      0             -4766.8892     -1754.2562    
     70000   301.22876     -4792.5741      0             -4766.5254     -1800.097     
     70100   304.15064     -4792.5163      0             -4766.2149     -1809.126     
     70200   302.51228     -4792.0462      0             -4765.8864     -1786.0108    
     70300   298.60893     -4791.4337      0             -4765.6114     -1790.0565    
     70400   307.9771      -4791.7738      0             -4765.1415     -1801.5191    
     70500   309.12588     -4791.5583      0             -4764.8267     -1833.4854    
     70600   308.26137     -4791.1837      0             -4764.5268     -1802.849     
     70700   302.32881     -4790.3402      0             -4764.1963     -1809.0904    
     70800   286.69029     -4788.7206      0             -4763.929      -1814.9767    
     70900   301.83535     -4789.6375      0             -4763.5363     -1807.3937    
     71000   316.37453     -4790.562       0             -4763.2035     -1828.9357    
     71100   303.81503     -4789.1416      0             -4762.8692     -1795.903     
     71200   294.96129     -4788.0616      0             -4762.5549     -1806.299     
     71300   302.42042     -4788.4044      0             -4762.2525     -1800.1222    
     71400   306.72848     -4788.5371      0             -4762.0128     -1815.882     
     71500   306.25273     -4788.1429      0             -4761.6597     -1814.4268    
     71600   294.22546     -4786.7336      0             -4761.2905     -1831.223     
     71700   311.71669     -4787.8573      0             -4760.9016     -1805.1542    
     71800   298.216       -4786.4039      0             -4760.6156     -1842.9998    
     71900   301.6368      -4786.385       0             -4760.3009     -1849.9866    
     72000   299.41773     -4785.8373      0             -4759.9451     -1785.5982    
     72100   287.81939     -4784.467       0             -4759.5778     -1823.9045    
     72200   302.65936     -4785.4744      0             -4759.3019     -1856.8917    
     72300   294.23602     -4784.3642      0             -4758.9202     -1812.4511    
     72400   286.85681     -4783.4831      0             -4758.6772     -1846.0133    
     72500   296.44092     -4783.9226      0             -4758.2879     -1853.109     
     72600   299.49161     -4783.8124      0             -4757.9139     -1829.3998    
     72700   292.13728     -4782.9578      0             -4757.6952     -1845.752     
     72800   303.45791     -4783.5963      0             -4757.3547     -1850.9212    
     72900   292.69023     -4782.1734      0             -4756.863      -1818.679     
     73000   298.52144     -4782.4379      0             -4756.6232     -1860.7108    
     73100   310.37859     -4783.131       0             -4756.291      -1828.1715    
     73200   294.08899     -4781.5269      0             -4756.0955     -1845.7269    
     73300   310.46788     -4782.4987      0             -4755.651      -1857.6903    
     73400   291.40989     -4780.5001      0             -4755.3005     -1895.5536    
     73500   320.34945     -4782.7212      0             -4755.019      -1800.7333    
     73600   305.77602     -4781.0929      0             -4754.6509     -1868.3839    
     73700   300.73197     -4780.3259      0             -4754.3201     -1891.7502    
     73800   301.63531     -4780.0675      0             -4753.9836     -1818.0839    
     73900   296.71431     -4779.3208      0             -4753.6624     -1885.0727    
     74000   302.07716     -4779.4054      0             -4753.2832     -1878.3867    
     74100   304.0435      -4779.333       0             -4753.0409     -1858.806     
     74200   298.85996     -4778.4707      0             -4752.6268     -1847.1189    
     74300   303.30948     -4778.502       0             -4752.2733     -1897.4223    
     74400   295.73729     -4777.5405      0             -4751.9666     -1855.3355    
     74500   302.59594     -4777.7457      0             -4751.5787     -1862.159     
     74600   293.2366      -4776.5914      0             -4751.2337     -1860.9001    
     74700   298.74918     -4776.8616      0             -4751.0273     -1864.6076    
     74800   313.05105     -4777.6711      0             -4750.6        -1902.3867    
     74900   301.90866     -4776.4853      0             -4750.3778     -1867.149     
     75000   297.33156     -4775.6211      0             -4749.9093     -1851.3116    
     75100   293.38901     -4774.9969      0             -4749.6261     -1890.8051    
     75200   296.8029      -4775.0064      0             -4749.3404     -1907.5998    
     75300   298.10787     -4774.7212      0             -4748.9423     -1891.2099    
     75400   308.62992     -4775.3121      0             -4748.6234     -1849.6275    
     75500   287.94878     -4773.1295      0             -4748.2292     -1891.1493    
     75600   298.85556     -4773.7509      0             -4747.9074     -1921.6273    
     75700   298.8896      -4773.3808      0             -4747.5343     -1917.4507    
     75800   295.273       -4772.7562      0             -4747.2225     -1861.168     
     75900   303.87091     -4773.1301      0             -4746.8529     -1910.569     
     76000   304.62291     -4772.8898      0             -4746.5475     -1884.0563    
     76100   301.39053     -4772.3305      0             -4746.2677     -1839.1724    
     76200   295.91893     -4771.516       0             -4745.9264     -1929.4143    
     76300   309.82003     -4772.3412      0             -4745.5495     -1880.9799    
     76400   303.47394     -4771.6374      0             -4745.3944     -1911.8167    
     76500   286.82666     -4769.6939      0             -4744.8905     -1948.0609    
     76600   301.76783     -4770.6731      0             -4744.5777     -1877.2591    
     76700   302.04612     -4770.3845      0             -4744.2651     -1920.9222    
     76800   305.61208     -4770.3721      0             -4743.9443     -1915.942     
     76900   292.24405     -4768.7939      0             -4743.522      -1910.5053    
     77000   293.97721     -4768.6197      0             -4743.198      -1923.4443    
     77100   311.72315     -4769.8372      0             -4742.8809     -1882.1265    
     77200   302.19634     -4768.6407      0             -4742.5083     -1930.3159    
     77300   296.71577     -4767.7987      0             -4742.1402     -1952.9396    
     77400   301.97643     -4767.9759      0             -4741.8624     -1916.4047    
     77500   312.01787     -4768.5162      0             -4741.5344     -1918.7874    
     77600   300.04888     -4767.1513      0             -4741.2046     -1916.8693    
     77700   302.17953     -4766.9245      0             -4740.7935     -1927.0445    
     77800   302.74616     -4766.6354      0             -4740.4554     -1932.3623    
     77900   303.62245     -4766.3958      0             -4740.1401     -1902.2542    
     78000   293.85509     -4765.1596      0             -4739.7485     -1935.9343    
     78100   302.64814     -4765.609       0             -4739.4375     -1968.9491    
     78200   301.18032     -4765.0678      0             -4739.0232     -1922.2032    
     78300   289.69588     -4763.7886      0             -4738.7371     -1891.8804    
     78400   311.17207     -4765.3138      0             -4738.4052     -1964.2184    
     78500   302.26259     -4764.1596      0             -4738.0214     -1940.4487    
     78600   308.45938     -4764.3594      0             -4737.6853     -1928.0548    
     78700   303.40244     -4763.5084      0             -4737.2717     -1927.69      
     78800   300.17484     -4762.9239      0             -4736.9662     -1953.1855    
     78900   301.59546     -4762.6294      0             -4736.5489     -1939.1673    
     79000   303.83351     -4762.5668      0             -4736.2928     -1930.6019    
     79100   296.09464     -4761.4844      0             -4735.8796     -1933.6955    
     79200   305.39587     -4761.9842      0             -4735.5751     -1975.6339    
     79300   304.79216     -4761.5595      0             -4735.2026     -1949.0207    
     79400   301.50541     -4760.9154      0             -4734.8428     -1919.9211    
     79500   294.67612     -4760.0799      0             -4734.5977     -1974.731     
     79600   292.99033     -4759.392       0             -4734.0556     -1979.348     
     79700   295.30355     -4759.4521      0             -4733.9157     -1933.3512    
     79800   313.12208     -4760.6093      0             -4733.532      -1977.8696    
     79900   311.85329     -4760.185       0             -4733.2175     -1984.8005    
     80000   305.35487     -4759.3259      0             -4732.9203     -1923.6398    
     80100   305.43943     -4758.868       0             -4732.4551     -1962.2434    
     80200   300.30299     -4758.0407      0             -4732.0719     -2000.7207    
     80300   307.49786     -4758.3005      0             -4731.7096     -1959.3166    
     80400   303.80596     -4757.6012      0             -4731.3296     -1937.0524    
     80500   300.52981     -4756.9562      0             -4730.9678     -2000.924     
     80600   295.04135     -4756.1232      0             -4730.6095     -1966.0835    
     80700   299.45377     -4756.1839      0             -4730.2886     -1929.3787    
     80800   287.79343     -4754.8412      0             -4729.9543     -1962.9032    
     80900   301.19107     -4755.6942      0             -4729.6487     -2004.5       
     81000   300.42526     -4755.2604      0             -4729.2811     -1944.6021    
     81100   297.68506     -4754.6918      0             -4728.9494     -1977.4085    
     81200   301.27619     -4754.7306      0             -4728.6777     -2030.9072    
     81300   292.6823      -4753.5353      0             -4728.2256     -1951.9213    
     81400   300.50808     -4753.794       0             -4727.8076     -1980.874     
     81500   298.14842     -4753.2624      0             -4727.48       -2027.6953    
     81600   306.29171     -4753.6167      0             -4727.1302     -1983.492     
     81700   296.78089     -4752.4507      0             -4726.7866     -1959.2358    
     81800   299.37132     -4752.2172      0             -4726.329      -1997.5606    
     81900   295.14055     -4751.5423      0             -4726.02       -1986.6951    
     82000   296.07611     -4751.3231      0             -4725.7199     -2005.0089    
     82100   304.09841     -4751.641       0             -4725.3441     -2007.0295    
     82200   314.04096     -4752.2871      0             -4725.1304     -1967.8122    
     82300   297.5237      -4750.3933      0             -4724.6649     -2025.8558    
     82400   295.83452     -4749.8442      0             -4724.2619     -2040.2915    
     82500   301.14171     -4749.9466      0             -4723.9053     -1979.0814    
     82600   296.13897     -4749.2634      0             -4723.6548     -1998.2706    
     82700   299.50291     -4749.0624      0             -4723.1629     -2035.1755    
     82800   290.57122     -4747.9968      0             -4722.8697     -1948.5982    
     82900   301.55691     -4748.5841      0             -4722.507      -2004.324     
     83000   293.56079     -4747.5887      0             -4722.203      -2021.7145    
     83100   285.90704     -4746.4979      0             -4721.7741     -1947.7866    
     83200   299.58709     -4747.4562      0             -4721.5494     -2015.661     
     83300   295.8898      -4746.7549      0             -4721.1678     -2037.9098    
     83400   308.44846     -4747.4727      0             -4720.7997     -1983.5752    
     83500   299.99365     -4746.3416      0             -4720.3997     -2046.2132    
     83600   293.84284     -4745.4112      0             -4720.0012     -2030.9699    
     83700   307.71249     -4746.2536      0             -4719.6441     -1986.4614    
     83800   299.18783     -4745.1379      0             -4719.2656     -2026.3893    
     83900   290.53726     -4744.014       0             -4718.8897     -2027.6288    
     84000   303.44843     -4744.8514      0             -4718.6107     -1999.0957    
     84100   289.41599     -4743.1769      0             -4718.1496     -2063.4352    
     84200   307.23184     -4744.4379      0             -4717.87       -2001.6419    
     84300   298.88235     -4743.1669      0             -4717.321      -2028.821     
     84400   303.26059     -4743.3807      0             -4717.1562     -2050.5082    
     84500   320.21775     -4744.4599      0             -4716.769      -2055.4071    
     84600   306.33357     -4742.8757      0             -4716.3855     -2002.5249    
     84700   298.4527      -4741.9514      0             -4716.1426     -2026.1709    
     84800   302.70971     -4741.8904      0             -4715.7135     -2069.0242    
     84900   289.21634     -4740.2471      0             -4715.2371     -2048.6301    
     85000   296.49141     -4740.5474      0             -4714.9083     -2024.6037    
     85100   300.36689     -4740.6964      0             -4714.7222     -2071.3572    
     85200   292.93387     -4739.63        0             -4714.2986     -2048.3199    
[...]
    263600   312.14714     -4803.5864      0             -4776.5935      28.362013    
    263700   298.22938     -4802.3274      0             -4776.538      -27.456672    
    263800   292.57852     -4801.9327      0             -4776.632      -87.835682    
    263900   299.98504     -4802.3989      0             -4776.4577     -34.685886    
    264000   292.02659     -4801.6454      0             -4776.3924     -24.968387    
    264100   291.49518     -4801.6617      0             -4776.4547     -69.228408    
    264200   295.6165      -4801.9829      0             -4776.4194      27.6248      
    264300   305.44806     -4802.8243      0             -4776.4106      8.2499123    
    264400   301.40343     -4802.6127      0             -4776.5488     -7.9346419    
    264500   301.31805     -4802.6785      0             -4776.622       33.185189    
    264600   304.97884     -4802.9771      0             -4776.604       37.17876     
    264700   302.46734     -4802.8759      0             -4776.72        28.059229    
    264800   294.90879     -4802.2975      0             -4776.7952     -7.8469597    
    264900   307.91469     -4803.6178      0             -4776.9909      65.696926    
    265000   293.75456     -4802.4185      0             -4777.016      -87.586488    
    265100   298.57375     -4802.8717      0             -4777.0525     -65.207625    
    265200   299.05049     -4802.9109      0             -4777.0505      29.853862    
    265300   302.3217      -4803.1556      0             -4777.0124     -112.92238    
    265400   299.14896     -4802.7233      0             -4776.8544      5.8869943    
    265500   288.88        -4801.8986      0             -4776.9177      13.04935     
    265600   299.83254     -4802.9357      0             -4777.0076      2.514862     
    265700   299.27651     -4802.8536      0             -4776.9737     -42.185735    
    265800   293.17262     -4802.3416      0             -4776.9895      54.11392     
    265900   294.91861     -4802.5163      0             -4777.0132      58.38323     
    266000   298.09439     -4802.7985      0             -4777.0208     -29.926602    
    266100   294.21722     -4802.4584      0             -4777.016       19.426882    
    266200   294.45868     -4802.4854      0             -4777.0221     -6.4552625    
    266300   292.63061     -4802.3103      0             -4777.005      -35.703646    
    266400   304.46407     -4803.3703      0             -4777.0417      18.562021    
    266500   299.05447     -4802.9016      0             -4777.0408     -64.427821    
    266600   302.05571     -4803.0635      0             -4776.9433     -12.982787    
    266700   296.64951     -4802.4741      0             -4776.8213     -22.209887    
    266800   286.73903     -4801.4777      0             -4776.682      -52.287623    
    266900   286.97814     -4801.3282      0             -4776.5117     -70.097616    
    267000   304.44776     -4802.7694      0             -4776.4422      16.457591    
    267100   299.09251     -4802.2225      0             -4776.3584     -47.804504    
    267200   300.66279     -4802.3707      0             -4776.3709     -17.115823    
    267300   300.85547     -4802.2435      0             -4776.227       39.349917    
    267400   294.09277     -4801.7321      0             -4776.3004     -24.717986    
    267500   309.76962     -4803.2138      0             -4776.4264      21.115842    
    267600   294.48392     -4801.8362      0             -4776.3707      65.176182    
    267700   300.03107     -4802.4412      0             -4776.496       27.089759    
    267800   301.25337     -4802.5706      0             -4776.5197     -41.388666    
    267900   296.87283     -4802.3501      0             -4776.6781      48.82353     
    268000   296.0515      -4802.2784      0             -4776.6773     -71.717669    
    268100   301.47805     -4802.7396      0             -4776.6693     -96.201565    
    268200   290.89307     -4801.8426      0             -4776.6876     -17.340779    
    268300   303.18688     -4802.9316      0             -4776.7135     -40.560492    
    268400   304.50688     -4803.1685      0             -4776.8363     -66.100312    
    268500   303.6464      -4803.2184      0             -4776.9606     -4.3888048    
    268600   301.94641     -4803.2223      0             -4777.1115      34.542191    
    268700   297.81497     -4802.9107      0             -4777.1572     -36.887923    
    268800   293.8346      -4802.5976      0             -4777.1882      79.750145    
    268900   299.17563     -4802.9412      0             -4777.07        67.458505    
    269000   289.22437     -4802.2247      0             -4777.2141     -46.989236    
    269100   295.99512     -4802.7734      0             -4777.1772      40.959776    
    269200   311.83336     -4804.1721      0             -4777.2063      32.09782     
    269300   311.66548     -4804.0633      0             -4777.112      -77.597124    
    269400   296.13834     -4802.7867      0             -4777.1781      23.152944    
    269500   295.68362     -4802.6348      0             -4777.0656     -91.521195    
    269600   303.57043     -4803.1933      0             -4776.942      -49.119793    
    269700   293.77591     -4802.2809      0             -4776.8766      12.408188    
    269800   291.83361     -4802.0884      0             -4776.8521     -19.528487    
    269900   305.13881     -4803.2412      0             -4776.8543     -39.897396    
    270000   301.36117     -4802.9408      0             -4776.8806     -42.696617    
    270100   282.37629     -4801.2467      0             -4776.8282     -20.4719      
    270200   301.3519      -4802.7165      0             -4776.657      -12.155064    
    270300   304.93777     -4802.8937      0             -4776.5242      41.094531    
    270400   299.6117      -4802.4018      0             -4776.4929      55.119748    
    270500   284.30149     -4801.0411      0             -4776.4561      69.118809    
    270600   302.96381     -4802.6631      0             -4776.4643     -24.239303    
    270700   299.4072      -4802.4264      0             -4776.5351      50.290471    
    270800   295.38476     -4802.051       0             -4776.5076     -54.075217    
    270900   292.56371     -4801.7852      0             -4776.4857     -25.971298    
    271000   289.76467     -4801.5432      0             -4776.4858     -8.7336138    
    271100   298.10212     -4802.1792      0             -4776.4008     -65.858152    
    271200   302.77065     -4802.589       0             -4776.4069     -67.363752    
    271300   302.54002     -4802.6687      0             -4776.5066     -10.051266    
    271400   313.80005     -4803.6129      0             -4776.4771     -55.029381    
    271500   303.29507     -4802.7192      0             -4776.4917      53.036403    
    271600   300.31279     -4802.4966      0             -4776.527      -0.14080988   
    271700   300.91164     -4802.6009      0             -4776.5795      47.999166    
    271800   297.78738     -4802.3998      0             -4776.6486      38.916128    
    271900   304.6576      -4803.1928      0             -4776.8475      65.132876    
    272000   302.05581     -4803.0754      0             -4776.9552     -34.077935    
    272100   298.92741     -4803.0439      0             -4777.1942     -21.409656    
    272200   311.89791     -4804.2915      0             -4777.3201     -3.1733318    
    272300   287.42331     -4802.0841      0             -4777.2292     -66.167109    
    272400   308.87895     -4803.9924      0             -4777.282      -31.354893    
    272500   287.79995     -4802.2304      0             -4777.3429      3.151254     
    272600   299.77028     -4803.222       0             -4777.2993     -46.763367    
    272700   298.18238     -4803.013       0             -4777.2276     -1.6274541    
    272800   304.66197     -4803.4823      0             -4777.1366      59.441428    
    272900   297.16025     -4802.6886      0             -4776.9917     -41.632159    
    273000   298.8814      -4802.7034      0             -4776.8576      11.583166    
    273100   300.44543     -4802.6906      0             -4776.7096      9.0685177    
    273200   290.71676     -4801.8065      0             -4776.6667     -7.1497062    
    273300   295.54598     -4802.1648      0             -4776.6075      18.840412    
    273400   298.3346      -4802.1002      0             -4776.3017      12.882215    
    273500   296.32929     -4802.0801      0             -4776.455      -16.85691     
    273600   292.41596     -4801.6732      0             -4776.3865      22.248899    
    273700   295.81203     -4801.8621      0             -4776.2817      14.817281    
    273800   297.99814     -4802.0516      0             -4776.2822     -64.88421     
    273900   313.62296     -4803.3181      0             -4776.1975     -22.733218    
    274000   297.41211     -4801.8396      0             -4776.1209     -25.303224    
    274100   296.06039     -4801.696       0             -4776.0942     -36.300348    
    274200   296.41324     -4801.7747      0             -4776.1424     -20.843536    
    274300   297.31822     -4801.7287      0             -4776.0181     -3.4831085    
    274400   302.37212     -4802.2161      0             -4776.0685      32.183784    
    274500   303.34825     -4802.4202      0             -4776.1881      11.344039    
    274600   317.00573     -4803.6605      0             -4776.2474     -9.6819259    
    274700   290.51954     -4801.4371      0             -4776.3144      15.732561    
    274800   301.52034     -4802.3588      0             -4776.2849      37.639094    
    274900   304.54674     -4802.7323      0             -4776.3966      20.273678    
    275000   306.53943     -4802.9287      0             -4776.4207      11.752646    
    275100   304.80627     -4802.8022      0             -4776.444       10.839945    
    275200   301.1628      -4802.4144      0             -4776.3713     -48.430884    
    275300   299.95427     -4802.2752      0             -4776.3366     -77.562463    
    275400   304.47415     -4802.7683      0             -4776.4389     -46.589873    
    275500   309.78308     -4803.2187      0             -4776.4302     -9.3987285    
    275600   297.61695     -4802.4787      0             -4776.7422     -44.106378    
    275700   306.95309     -4803.3786      0             -4776.8348     -37.991736    
    275800   303.74155     -4803.2876      0             -4777.0215      47.790969    
    275900   294.13517     -4802.4301      0             -4776.9947      10.232183    
    276000   307.09853     -4803.6729      0             -4777.1166      3.185857     
    276100   295.81082     -4802.6538      0             -4777.0736      4.8460469    
    276200   300.37631     -4802.997       0             -4777.022       11.340793    
    276300   292.15327     -4802.3191      0             -4777.0552     -62.306683    
    276400   292.18594     -4802.2218      0             -4776.9551      35.113394    
    276500   297.72941     -4802.5308      0             -4776.7846     -71.281439    
    276600   300.56432     -4802.7872      0             -4776.7959     -23.919096    
    276700   296.53744     -4802.2618      0             -4776.6187      30.761646    
    276800   292.49846     -4801.9072      0             -4776.6134     -64.965616    
    276900   309.36704     -4803.2979      0             -4776.5454     -49.139922    
    277000   289.71494     -4801.5818      0             -4776.5286      24.425932    
    277100   287.01445     -4801.3696      0             -4776.55       -34.969009    
    277200   295.00483     -4802.0234      0             -4776.5129      35.323351    
    277300   295.10319     -4801.8441      0             -4776.325       46.608501    
    277400   299.73609     -4802.0585      0             -4776.1388     -4.3563824    
    277500   287.5072      -4800.8422      0             -4775.98       -5.3672598    
    277600   306.57788     -4802.432       0             -4775.9207      24.100264    
    277700   296.43223     -4801.4503      0             -4775.8164     -22.0457      
    277800   295.97304     -4801.4448      0             -4775.8506     -3.6661002    
    277900   291.74898     -4801.0029      0             -4775.7739      28.272923    
    278000   292.69217     -4801.0798      0             -4775.7693     -68.791818    
    278100   308.04775     -4802.6536      0             -4776.0151      20.18478     
    278200   306.08002     -4802.6238      0             -4776.1555     -17.124003    
    278300   296.95237     -4802.0537      0             -4776.3747     -53.073471    
    278400   304.34634     -4802.8525      0             -4776.5342      34.133527    
    278500   299.89193     -4802.5604      0             -4776.6272     -44.857361    
    278600   304.32778     -4803.0787      0             -4776.762      -46.101047    
    278700   302.14943     -4802.9223      0             -4776.7939      14.667822    
    278800   287.32419     -4801.6285      0             -4776.7822      0.079296447  
    278900   310.90592     -4803.7559      0             -4776.8703     -19.397631    
    279000   293.72328     -4802.4207      0             -4777.021       34.515043    
    279100   301.50172     -4803.0765      0             -4777.0041     -17.984481    
    279200   296.38453     -4802.6364      0             -4777.0065      10.66538     
    279300   297.97806     -4802.8619      0             -4777.0942     -3.1339182    
    279400   300.55081     -4803.1841      0             -4777.194      -38.517815    
    279500   310.20442     -4804.1341      0             -4777.3092     -15.078216    
    279600   298.91794     -4803.0278      0             -4777.1788     -49.287212    
    279700   308.21571     -4803.7375      0             -4777.0846      9.0877293    
    279800   307.94861     -4803.6364      0             -4777.0065     -0.72465044   
    279900   315.48461     -4804.267       0             -4776.9854     -32.855666    
    280000   300.89127     -4802.9899      0             -4776.9703      22.166603    
    280100   307.74766     -4803.4774      0             -4776.8649     -3.9505552    
    280200   304.72548     -4803.0948      0             -4776.7436      23.45986     
    280300   310.578       -4803.6494      0             -4776.7922     -2.0415698    
    280400   305.60878     -4803.1737      0             -4776.7461     -24.963172    
    280500   306.84612     -4803.2522      0             -4776.7177     -11.272617    
    280600   302.99402     -4802.8761      0             -4776.6746     -28.281689    
    280700   297.27033     -4802.3324      0             -4776.626      -42.749389    
    280800   310.92494     -4803.4784      0             -4776.5912      31.614832    
    280900   297.30631     -4802.2606      0             -4776.551      -41.775311    
    281000   295.67093     -4801.8665      0             -4776.2984     -29.697103    
    281100   307.44941     -4802.8455      0             -4776.2588      47.448483    
    281200   288.82907     -4801.1833      0             -4776.2068     -27.559439    
    281300   297.62318     -4801.9081      0             -4776.1711     -13.660342    
    281400   311.67465     -4803.1716      0             -4776.2195      9.7504809    
    281500   291.09857     -4801.5902      0             -4776.4174     -67.870818    
    281600   293.55695     -4801.7594      0             -4776.3741      10.835998    
    281700   308.46424     -4803.2349      0             -4776.5604      56.035888    
    281800   304.37423     -4802.7969      0             -4776.4761     -44.422308    
    281900   310.21623     -4803.3379      0             -4776.5119     -15.960186    
    282000   297.89041     -4802.3349      0             -4776.5748     -11.182735    
    282100   302.35118     -4802.8505      0             -4776.7046     -39.532871    
    282200   292.71002     -4802.087       0             -4776.7749     -25.547717    
    282300   296.68241     -4802.4893      0             -4776.8337      44.840123    
    282400   304.42883     -4803.3021      0             -4776.9766     -7.9096202    
    282500   302.19873     -4803.0652      0             -4776.9326     -0.70206654   
    282600   300.97732     -4803.0786      0             -4777.0516      10.107471    
    282700   299.77728     -4803.196       0             -4777.2727     -5.5718965    
    282800   307.67313     -4803.7807      0             -4777.1746     -40.642572    
    282900   303.81724     -4803.5658      0             -4777.2932     -31.600574    
    283000   310.11001     -4804.0855      0             -4777.2687     -3.2334521    
    283100   301.65026     -4803.4727      0             -4777.3875     -12.101581    
    283200   301.44405     -4803.3452      0             -4777.2778      81.643733    
    283300   305.49296     -4803.6153      0             -4777.1978      26.222114    
    283400   300.25249     -4803.0935      0             -4777.1292     -34.375989    
    283500   293.94597     -4802.6029      0             -4777.1839      16.749684    
    283600   300.20668     -4803.096       0             -4777.1356      26.498       
    283700   284.62075     -4801.5516      0             -4776.9391     -71.578951    
    283800   299.97744     -4802.7921      0             -4776.8515     -51.04055     
    283900   303.15504     -4802.8683      0             -4776.6529     -36.16245     
    284000   296.99768     -4802.2276      0             -4776.5447     -48.566767    
    284100   301.89088     -4802.6091      0             -4776.5031     -41.412843    
    284200   304.52069     -4802.7674      0             -4776.4339      50.816304    
    284300   307.67019     -4802.9693      0             -4776.3635      37.806314    
    284400   308.82825     -4803.0588      0             -4776.3528      4.2951052    
    284500   308.65579     -4803.05        0             -4776.359       36.652956    
    284600   293.60456     -4801.7031      0             -4776.3136      0.92340286   
    284700   305.12601     -4802.6458      0             -4776.2601      2.2553912    
    284800   305.84615     -4802.7231      0             -4776.275      -7.8125264    
    284900   307.13198     -4802.9335      0             -4776.3742     -7.1975513    
    285000   305.62756     -4802.6759      0             -4776.2467     -44.923066    
Loop time of 1002 on 1 procs for 280000 steps with 690 atoms

Performance: 12.072 ns/day, 1.988 hours/ns, 279.442 timesteps/s, 192.815 katom-step/s
29.6% CPU use with 1 MPI tasks x 1 OpenMP threads

MPI task timing breakdown:
Section |  min time  |  avg time  |  max time  |%varavg| %total
---------------------------------------------------------------
Pair    | 996.7      | 996.7      | 996.7      |   0.0 | 99.47
Neigh   | 0.28655    | 0.28655    | 0.28655    |   0.0 |  0.03
Comm    | 0.15221    | 0.15221    | 0.15221    |   0.0 |  0.02
Output  | 1.4363     | 1.4363     | 1.4363     |   0.0 |  0.14
Modify  | 2.7905     | 2.7905     | 2.7905     |   0.0 |  0.28
Other   |            | 0.6323     |            |       |  0.06

Nlocal:            690 ave         690 max         690 min
Histogram: 1 0 0 0 0 0 0 0 0 0
Nghost:              0 ave           0 max           0 min
Histogram: 1 0 0 0 0 0 0 0 0 0
Neighs:              0 ave           0 max           0 min
Histogram: 1 0 0 0 0 0 0 0 0 0
FullNghs:       100338 ave      100338 max      100338 min
Histogram: 1 0 0 0 0 0 0 0 0 0

Total # of neighbors = 100338
Ave neighs/atom = 145.41739
Neighbor list builds = 363
Dangerous builds = 0
Total wall time: 0:16:56
