ITEM: TIMESTEP
12750
ITEM: NUMBER OF ATOMS
32000
ITEM: BOX BOUNDS pp pp pp
5.1605059741148178e+00 7.5839494025880029e+01
-2.2364926504027522e+00 8.3236492650396940e+01
-2.2382233380588872e+00 8.3238223338054681e+01
ITEM: ATOMS id type xs ys zs c_csym c_peratom fx fy fz
8 1 0.0498377 0.0248649 0.024755 0.0210991 -3.28557 0.0395468 -0.0474177 0.00165488
1602 1 0.025408 0.0245826 0.049716 0.0210892 -3.29581 0.0146924 0.0395754 0.0674922
1685 1 0.0502586 0.0495699 0.0496383 0.0215106 -3.28695 -0.0567478 0.0928307 0.00221933
4 1 6.71152e-05 0.0246588 0.0251806 0.0185305 -3.3024 0.0369495 0.000514123 -0.0384665
3 1 0.0253493 -0.000400517 0.024986 0.0186859 -3.28863 -0.0122221 0.079092 -0.00970218
12 1 0.100029 0.0248837 0.0251449 0.0155679 -3.29244 0.0143333 -0.00430701 -0.0813815
6 1 0.075052 0.0246963 3.49215e-05 0.0120169 -3.29432 -0.00580912 -0.0448424 0.039345
7 1 0.0746108 -0.000174778 0.0249966 0.0282361 -3.30184 0.0448669 -0.0103136 -0.0509032
1606 1 0.0749837 0.0251061 0.0498536 0.0359326 -3.28933 0.0244451 -0.108132 0.0372139
1689 1 0.100095 0.0499816 0.0497528 0.026961 -3.29229 0.00154518 -0.0192573 0.0591249
89 1 0.100001 0.049841 -9.67412e-05 0.0104841 -3.29187 -0.0468495 0.00223394 -0.0251443
16 1 0.150217 0.0250286 0.0252333 0.0145996 -3.30191 0.012364 0.0531712 -0.0189162
15 1 0.175006 -0.000168853 0.0251436 0.0267195 -3.30068 -0.00432596 0.0359592 -0.0330564
11 1 0.125319 0.00031302 0.0248627 0.0338554 -3.2901 0.014001 -0.0942431 0.0662754
91 1 0.124916 0.0500367 0.024574 0.0470032 -3.3055 0.0471115 -0.0156919 0.105041
1614 1 0.175456 0.0250607 0.0501099 0.0243041 -3.29954 -0.0425716 0.0120344 0.0591786
14 1 0.175005 0.0251216 8.442e-06 0.0191742 -3.29759 0.0460629 -0.0174463 0.00695438
93 1 0.150445 0.0499988 1.51493e-05 0.0201275 -3.29249 -0.0784529 0.00578892 0.0164559
20 1 0.200106 0.0247488 0.0248673 0.0290699 -3.29961 0.0468661 0.0823741 0.0376283
19 1 0.224722 -0.000198445 0.0251532 0.032953 -3.2867 0.131846 0.0216722 0.0459747
1618 1 0.225073 0.0250448 0.0501214 0.0188772 -3.29403 -0.0288036 -0.00702861 -0.0953776
99 1 0.225241 0.0499919 0.0249323 0.0127656 -3.304 0.0536084 -0.0862291 0.00445577
18 1 0.22563 0.0250096 -3.43142e-05 0.03619 -3.29704 0.0627295 0.0359065 0.00818266
97 1 0.200606 0.0498716 -3.09292e-05 0.0260389 -3.29263 -0.0810183 -0.0225812 -0.00750549
24 1 0.250234 0.0246205 0.0252203 0.0376393 -3.31059 0.0136198 0.0740256 -0.0643948
1622 1 0.275016 0.0250095 0.0501068 0.0318037 -3.29278 0.071768 -0.0288636 0.0648937
103 1 0.275498 0.0502378 0.0245756 0.03889 -3.29159 -0.00610327 -0.047494 0.038344
21 1 0.250172 -0.000316589 -3.46954e-06 0.0169836 -3.29497 0.0103645 0.110223 0.0642759
28 1 0.299752 0.0250115 0.0251945 0.066388 -3.29654 0.0923183 -0.0736427 -0.0948245
26 1 0.32497 0.0249525 -0.000619805 0.051972 -3.29133 -0.0165802 0.0332872 0.223386
32 1 0.349928 0.0248384 0.025017 0.0210654 -3.29727 -0.0168738 0.12921 -0.0623576
25 1 0.30005 9.53675e-05 -0.000247004 0.0322264 -3.30431 -0.00786448 -0.100377 0.019469
27 1 0.325193 1.79828e-06 0.024591 0.0334757 -3.29201 -0.121494 0.0131401 0.0429757
107 1 0.324842 0.0498796 0.0247281 0.0247339 -3.29745 0.0582768 0.0076745 -0.0280576
1705 1 0.300453 0.04994 0.0496867 0.0279735 -3.28995 -0.125951 -0.0150725 0.0938265
1629 1 0.349795 -0.000156805 0.0498098 0.0292787 -3.29633 0.0590105 0.0580329 0.0419861
36 1 0.400194 0.0254367 0.0250101 0.0321329 -3.29611 0.014233 -0.0813513 0.0802348
111 1 0.375081 0.0500674 0.0252554 0.021985 -3.29518 -0.0930595 0.0332334 -0.0759613
115 1 0.425209 0.0501364 0.0256554 0.085124 -3.29995 0.0201101 -0.0168694 -0.118603
40 1 0.449778 0.0247358 0.0247251 0.0383186 -3.30592 -0.0524397 0.0697858 0.0541717
35 1 0.424838 0.000104759 0.0248335 0.0266697 -3.29488 -0.0389934 -0.00738801 -0.0260532
1634 1 0.425209 0.0251443 0.0502849 0.0287454 -3.30548 0.00558447 0.0215771 -0.0910378
34 1 0.424111 0.0249011 -0.000429624 0.11279 -3.2878 0.106762 0.0497398 0.136398
44 1 0.499846 0.0248627 0.0246619 0.0177387 -3.303 0.0206541 0.0495837 -0.0226113
39 1 0.474973 -0.000289713 0.0248009 0.0156258 -3.28937 0.0177502 0.0258087 -0.000794451
1642 1 0.52474 0.0249115 0.049524 0.0435794 -3.28301 0.0513775 -0.05385 0.106741
123 1 0.524831 0.0503197 0.0245245 0.0538298 -3.30534 -0.0140342 -0.097966 0.0469664
43 1 0.52524 0.000288892 0.0249511 0.0437472 -3.30062 -0.0334845 -0.0518275 -0.0119901
1721 1 0.500292 0.0495603 0.0499544 0.0595585 -3.28231 -0.117038 0.0811784 -0.113049
1641 1 0.499626 -0.000162454 0.0497669 0.0216475 -3.28816 0.106788 0.0407065 0.00642402
38 1 0.474652 0.0251439 -3.66045e-05 0.0159497 -3.28097 0.0716558 -0.0292822 -0.0279144
42 1 0.525416 0.0253512 -0.000270007 0.0564956 -3.31178 -0.0616152 -0.0169484 0.00531192
48 1 0.550119 0.0252188 0.0251514 0.0397394 -3.30042 0.0512664 0.0417194 -0.00749595
127 1 0.57463 0.0504823 0.0250886 0.0394711 -3.28705 0.0575816 -0.138073 0.0396537
47 1 0.574355 -2.522e-05 0.0246912 0.0480606 -3.30449 0.0418191 0.0397224 0.0288237
1645 1 0.550018 0.00031362 0.050288 0.0440262 -3.29744 0.0303567 0.0272777 -0.0490205
52 1 0.599644 0.0251664 0.0251379 0.0134176 -3.30108 -0.0533964 0.00976044 -0.00976193
131 1 0.624577 0.0504601 0.0252568 0.0297014 -3.30104 -0.0108048 -0.0229207 0.000592613
51 1 0.624491 8.65705e-05 0.0254091 0.0242112 -3.2952 -0.060893 -0.0299933 -0.112676
49 1 0.599735 0.000390096 -0.000241791 0.0355288 -3.29997 -0.0362403 -0.158894 0.0925922
56 1 0.649199 0.0250613 0.0249573 0.0336382 -3.29402 -0.00177641 0.0029847 0.0620159
60 1 0.699563 0.0247198 0.0251918 0.0207146 -3.29243 0.0946553 0.0475719 -0.00267085
135 1 0.674528 0.0497771 0.0251803 0.0249681 -3.3021 -0.0304011 0.048318 -0.0438381
1654 1 0.674132 0.0250188 0.0497156 0.0627685 -3.30827 0.0440583 -0.0388532 0.128015
55 1 0.674917 -2.36199e-05 0.0252489 0.0292647 -3.29034 -0.079135 0.0171324 0.0422557
1657 1 0.699926 -1.25971e-05 0.0502543 0.019428 -3.30513 -0.0910735 -0.0101061 -0.0497704
1653 1 0.649464 -0.00014065 0.0501456 0.0188973 -3.29475 0.0323371 0.10365 0.0252453
54 1 0.67474 0.0250128 0.000310699 0.0123685 -3.28797 -0.0682532 0.040578 -0.0266536
64 1 0.750069 0.0253422 0.0251059 0.029339 -3.303 -0.0675316 -0.0773672 0.0180059
1658 1 0.724666 0.0248579 0.0502344 0.0278557 -3.28988 0.00649714 0.0450517 -0.0758098
59 1 0.725177 -1.05408e-05 0.0249186 0.0329454 -3.31154 -0.0641625 0.0697885 0.0113589
58 1 0.724672 0.0253569 0.000286446 0.0445632 -3.30552 0.00468892 -0.164506 -0.0228418
61 1 0.749843 -0.000155514 -0.000280572 0.0371899 -3.2993 0.00145063 0.0674495 0.102577
68 1 0.8001 0.0250783 0.0248965 0.0136008 -3.28881 -0.0479064 0.00332376 -0.0724356
143 1 0.774915 0.0502812 0.0249298 0.0211065 -3.30351 0.0322327 -0.0297274 0.0291269
62 1 0.774606 0.0249636 9.15518e-05 0.0315211 -3.30531 0.153545 0.0195812 -0.0271837
63 1 0.775179 0.000157903 0.0251455 0.0212879 -3.29873 -0.0808116 0.00118794 -0.0425034
1665 1 0.800249 -1.31396e-05 0.0501918 0.0245737 -3.28735 -0.0630518 -0.007618 -0.0286332
72 1 0.84974 0.0248672 0.0249849 0.0100609 -3.28341 0.0637872 0.0127666 -0.0340744
71 1 0.874868 0.000252126 0.0246212 0.0260963 -3.31065 0.0715629 -0.00525318 0.137987
67 1 0.82483 -7.26807e-05 0.0251817 0.016 -3.29471 0.0631056 0.0125414 -0.0656352
1666 1 0.825032 0.0246987 0.0496911 0.0514918 -3.28396 -0.0450935 0.0998853 0.146404
1749 1 0.849906 0.0496209 0.0504538 0.0655644 -3.28934 0.0156655 0.0702126 -0.132133
70 1 0.874832 0.0251543 -0.000106134 0.0170171 -3.29193 0.0671226 -0.0538738 -0.0159214
76 1 0.900179 0.0255014 0.0246763 0.0444469 -3.29488 -0.102548 -0.0693804 0.00539882
1753 1 0.899837 0.0501845 0.0497818 0.0143024 -3.29069 -0.0323085 0.0282766 -0.006236
74 1 0.925081 0.0248421 -0.000227281 0.0185196 -3.29249 0.0575246 -0.0169052 0.0181184
80 1 0.949826 0.0249664 0.025182 0.0177154 -3.30472 0.0156019 0.0239121 -0.0359371
1678 1 0.975167 0.0249948 0.0502336 0.0259154 -3.30638 -0.00171395 0.0793401 -0.0668047
159 1 0.975372 0.0499052 0.0252082 0.01 -3.3027 -0.0476589 0.0124431 0.0136763
78 1 0.975097 0.0248974 0.000304032 0.0186009 -3.29703 -0.00223826 -0.120215 -0.0347977
79 1 0.974673 -4.61234e-05 0.0251688 0.0365143 -3.29012 0.0866669 -0.0278184 -0.125936
81 1 0.999851 0.0496704 0.000209457 0.0277216 -3.28584 0.0878418 0.0187915 -0.0756575
83 1 0.0250357 0.0497189 0.024647 0.0239961 -3.28311 0.0331338 0.00398958 0.0443431
88 1 0.0499273 0.0747104 0.0245987 0.017164 -3.30502 0.00633258 -0.045841 0.0799625
84 1 0.000649998 0.074846 0.0253068 0.0247264 -3.29314 -0.0305971 -0.0101509 -0.0696277
161 1 3.05556e-05 0.0996339 -7.15164e-05 0.0275224 -3.29553 0.0688677 0.00812386 0.012026
87 1 0.0750304 0.0495693 0.0246925 0.0197891 -3.28476 -0.00875831 0.0722773 0.0239878
92 1 0.0994012 0.0748619 0.0249234 0.0455545 -3.2914 0.118892 -0.0469249 -0.0522331
86 1 0.0748918 0.0748695 -0.000254777 0.0101002 -3.29705 -0.00582585 -0.070647 -0.0718723
169 1 0.099451 0.099723 0.000167726 0.0602457 -3.29225 0.127863 0.0196821 -0.143763
95 1 0.175394 0.0498325 0.0251612 0.00869484 -3.29835 -0.0693493 -0.0243831 -0.0202292
96 1 0.150248 0.0747268 0.0251497 0.0141186 -3.3021 -0.00316832 -0.0411603 -0.0405313
1694 1 0.175287 0.0748395 0.0501731 0.0227573 -3.29943 -0.0330316 -0.0383299 -0.0483554
175 1 0.174835 0.0998208 0.0250139 0.0371951 -3.2879 0.117924 -0.00782285 -0.0254805
171 1 0.12509 0.0994972 0.0247999 0.0215721 -3.30113 0.0311365 0.0611624 -0.0428136
94 1 0.175222 0.0747064 6.82438e-05 0.0119381 -3.29043 -0.00989889 -0.0193855 -0.0745487
100 1 0.199991 0.0746087 0.0247413 0.022897 -3.29644 0.0340963 0.0955333 0.108579
1698 1 0.225409 0.0747714 0.0497226 0.00784758 -3.30138 -0.0480406 0.0224025 0.00180613
179 1 0.225068 0.0998523 0.0246938 0.00840126 -3.29287 0.0226319 -0.0121919 0.069433
98 1 0.225152 0.0749 -3.26295e-05 0.0107704 -3.2908 0.0244319 -0.00684925 -0.0733525
177 1 0.200008 0.0993846 -0.000107404 0.0614996 -3.28801 7.10755e-05 0.115015 0.0453549
104 1 0.250342 0.0749412 0.0248439 0.0069896 -3.29787 0.0643516 0.0245277 0.0183029
1701 1 0.250671 0.0499585 0.0496804 0.0420715 -3.28771 -0.0349747 -0.00953933 -0.0179066
101 1 0.250583 0.0502959 -9.64672e-05 0.0327802 -3.30316 -0.0452216 -0.0834901 -0.0956613
183 1 0.275285 0.100124 0.0250293 0.0176492 -3.29996 -0.0101557 -0.0107775 0.00905631
1702 1 0.275465 0.0748754 0.0500667 0.0192653 -3.30085 0.0581975 0.0506794 -0.119376
102 1 0.275198 0.0753515 -0.000560943 0.0335034 -3.29232 0.027382 -0.0769017 0.0533286
181 1 0.250076 0.0998651 0.000143753 0.0435456 -3.2978 -0.0124248 0.100435 -0.118885
108 1 0.30045 0.0751573 0.024538 0.0270313 -3.29544 -0.078726 0.0230659 0.0504189
112 1 0.349872 0.0752956 0.0248691 0.0129347 -3.30835 0.0138364 -0.0201922 0.0334827
187 1 0.324657 0.100698 0.0248151 0.0642499 -3.29171 0.0482442 -0.0458496 0.055654
185 1 0.300047 0.100216 -9.54306e-05 0.0166347 -3.2899 -0.0563114 0.133731 -0.0169499
1706 1 0.324935 0.0749805 0.0496891 0.0217233 -3.28884 -0.00382948 0.051755 0.0493046
116 1 0.400231 0.0749495 0.0249862 0.018041 -3.30379 -0.0418384 0.0836134 0.0276878
120 1 0.450126 0.07533 0.0251453 0.0344623 -3.28492 0.00317959 -0.0774428 0.0510179
1714 1 0.425213 0.0750928 0.0501347 0.0188895 -3.29009 -0.0129408 -0.000949033 -0.0109604
121 1 0.499383 0.0499721 -0.000166769 0.0194279 -3.29256 0.0935938 0.00499853 0.0512158
119 1 0.474699 0.0498151 0.0249708 0.00932593 -3.30866 0.00648726 0.0197499 0.0123514
124 1 0.499563 0.0751277 0.024999 0.0267853 -3.28851 0.0160059 -0.11473 -0.100899
199 1 0.475167 0.0999663 0.0252543 0.0217494 -3.27835 -0.101959 0.039837 -0.0440209
128 1 0.549692 0.0750109 0.024724 0.0209184 -3.28291 -0.0558094 0.0501455 -0.0184989
1726 1 0.574019 0.0749857 0.0498022 0.0499934 -3.29128 0.0494324 0.0375676 0.0812386
207 1 0.574256 0.100226 0.0250445 0.0221082 -3.29075 -0.003256 -0.0489089 -0.0506474
125 1 0.55034 0.0503008 -7.02821e-05 0.047119 -3.28521 -0.138741 -0.0737824 -0.0710736
126 1 0.574607 0.0748452 -0.000173489 0.0285783 -3.28827 0.0912546 0.156563 0.00414538
132 1 0.599417 0.0753382 0.0250237 0.0211376 -3.30258 0.0340752 0.0448914 -0.0343319
211 1 0.624899 0.100517 0.0249006 0.0375013 -3.30487 -0.0064418 -0.118265 0.0356191
130 1 0.624594 0.0751509 -0.000210081 0.019977 -3.30103 -0.017334 -0.00131571 0.0915163
1729 1 0.599414 0.0504655 0.0502689 0.0343569 -3.28577 0.133439 0.031993 -0.0779099
1730 1 0.624898 0.0755911 0.0494444 0.080572 -3.30133 0.0120786 -0.0416333 0.119817
137 1 0.699448 0.0499241 -7.27052e-05 0.0118298 -3.28313 -0.0111754 0.0192422 0.025835
136 1 0.650138 0.0752689 0.0248578 0.03195 -3.30734 -0.0102691 0.0160226 -0.0103567
140 1 0.699614 0.0748564 0.0250017 0.0132855 -3.31479 -0.0145773 0.0689424 -0.0427083
1813 1 0.650092 0.100469 0.0500472 0.0221269 -3.29919 0.00801792 -0.0162401 -0.0541291
1737 1 0.699653 0.0498141 0.0498778 0.0129186 -3.30344 0.0696644 0.0281303 0.0471495
139 1 0.724448 0.0499863 0.0248791 0.0217363 -3.29824 0.0381366 -0.0242952 0.0530763
144 1 0.749646 0.0750511 0.0250139 0.0209173 -3.30361 0.0305901 -0.0224422 -0.00718012
138 1 0.724862 0.0745529 1.91611e-05 0.0299171 -3.30169 -0.0700777 0.0599646 -0.0258702
221 1 0.74979 0.0998739 0.000482725 0.026199 -3.30558 0.0233707 -0.0312091 -0.0823399
148 1 0.800273 0.0749272 0.0251627 0.00985924 -3.3032 0.0750919 0.0356645 -0.0135597
1745 1 0.800158 0.0500407 0.049856 0.0142498 -3.30066 0.0238467 0.0386589 0.105867
142 1 0.775347 0.0750018 0.00021031 0.0130059 -3.30303 -0.116066 -0.0413152 0.0222888
225 1 0.800308 0.0997684 0.000584188 0.0418309 -3.29293 0.00753172 0.0378199 -0.0617153
147 1 0.825081 0.0497665 0.0251393 0.0137145 -3.29469 0.0739699 0.0807059 -0.020091
151 1 0.874486 0.0501834 0.0246477 0.0631812 -3.30075 0.0446505 -0.0904706 0.0841506
152 1 0.850134 0.0748925 0.0250123 0.0129903 -3.29232 -0.0237669 -0.00648048 -0.0301349
227 1 0.825718 0.100056 0.0250823 0.0283701 -3.28624 -0.0722337 -0.0280414 0.00038252
1746 1 0.82553 0.0748999 0.049991 0.021636 -3.29809 -0.0824626 -0.0033173 0.0193498
1750 1 0.874776 0.0748473 0.0502561 0.0342907 -3.30392 0.0496777 0.0202319 -0.020474
155 1 0.925144 0.0502854 0.02494 0.0229738 -3.28814 0.046114 -0.0150901 -0.0390517
156 1 0.899934 0.0748653 0.0249894 0.0168536 -3.29908 -0.0886716 0.0353856 -0.0181965
1833 1 0.900314 0.100188 0.0501258 0.0316712 -3.3074 -0.0354819 -0.0693503 -0.0717213
235 1 0.92523 0.0996799 0.0245258 0.0523954 -3.30336 -0.0258383 0.105674 0.102128
160 1 0.950477 0.0752767 0.0253123 0.0563593 -3.29643 0.0525711 -0.0861246 -0.0923306
1758 1 0.975744 0.0750783 0.0501944 0.023818 -3.30374 0.00179317 -0.0347538 0.0228731
165 1 0.0497399 0.0996391 -0.0003857 0.0239073 -3.28672 0.0151612 0.0291512 0.0452866
163 1 0.0252986 0.0997021 0.024961 0.0095847 -3.29144 0.0395785 0.0344185 -0.00113319
1765 1 0.050399 0.0997925 0.0499543 0.00860737 -3.29648 -0.0439575 0.0273105 -0.00641093
168 1 0.0503937 0.124818 0.0250955 0.0186344 -3.29101 -0.0923772 0.014164 0.0317075
245 1 0.0497227 0.150355 0.000354294 0.0944202 -3.29741 0.0707821 -0.174797 -0.112533
243 1 0.025142 0.149782 0.0251668 0.0283446 -3.29899 -0.0572367 0.0571811 0.108148
1845 1 0.0502152 0.149995 0.050018 0.024497 -3.30733 0.053034 -0.019294 0.0114149
1762 1 0.0256321 0.124778 0.0505579 0.0378403 -3.29406 -0.0479895 0.0794065 -0.114428
167 1 0.0747417 0.0997135 0.0246344 0.023189 -3.2811 -0.0377052 0.0456702 0.0905936
172 1 0.10017 0.124855 0.024478 0.0357266 -3.29568 -0.00621777 -0.0530326 0.101642
247 1 0.0752543 0.14979 0.0248404 0.0191032 -3.29509 0.0289719 0.0202134 0.0502066
176 1 0.150289 0.1248 0.0247764 0.0156865 -3.29271 0.0107802 -0.0502511 -0.0546646
255 1 0.17487 0.149858 0.0248198 0.0341693 -3.30358 0.115696 0.01061 -0.0254442
251 1 0.125657 0.149479 0.025058 0.0457326 -3.29993 -0.0746553 0.0932464 -0.0864876
170 1 0.125034 0.124437 -8.47662e-05 0.0301017 -3.30478 0.0915244 0.048309 -0.0328812
253 1 0.150484 0.149863 -0.000459948 0.0432465 -3.29811 -0.0459995 -0.0902055 0.107106
180 1 0.200311 0.124951 0.0247271 0.0163043 -3.29621 -0.0544022 -0.0180967 0.0605479
1778 1 0.224855 0.124961 0.0498252 0.0148699 -3.29511 0.0698811 -0.0629743 -0.0486967
259 1 0.224884 0.150102 0.0247997 0.00798162 -3.28522 0.0716855 -0.0508402 0.0537994
1857 1 0.2001 0.149906 0.0498751 0.0122434 -3.29214 -0.0526839 -0.0912758 0.0133436
257 1 0.200379 0.150145 -0.000229701 0.0150566 -3.2818 -0.12834 -0.0052312 0.0350166
178 1 0.224818 0.125116 -0.000369212 0.0211672 -3.30308 0.0708588 -0.0781758 -0.00312737
184 1 0.24998 0.124971 0.0245713 0.0316208 -3.30759 -0.0163351 0.0193589 0.114573
1861 1 0.249823 0.149879 0.0500979 0.0171893 -3.29889 0.000914409 0.0563613 -0.0477143
1782 1 0.274914 0.125199 0.0501609 0.0190539 -3.29961 -0.0304943 -0.058588 -0.0628047
182 1 0.274622 0.125558 -0.000262706 0.046905 -3.2923 0.0689487 -0.124371 0.0432144
188 1 0.299418 0.125569 0.02504 0.0520769 -3.30108 0.0238089 -0.0251148 -0.0325576
192 1 0.35028 0.125173 0.0251738 0.0282856 -3.29575 -0.00290577 -0.0184002 -0.0175285
186 1 0.325122 0.125272 4.68211e-05 0.0179819 -3.30847 -0.0479181 -0.00280262 -0.012268
269 1 0.350004 0.150236 -0.000487259 0.043565 -3.29642 -0.0546622 -0.00407321 0.111389
191 1 0.375257 0.100134 0.0249391 0.0155273 -3.30627 0.065035 -0.00462263 0.145699
196 1 0.400563 0.125156 0.0252109 0.0224593 -3.30113 -0.116568 0.0164902 -0.0132676
273 1 0.400974 0.150129 0.000240344 0.0775066 -3.29041 -0.125038 0.0163139 0.0263441
271 1 0.374786 0.149958 0.0249834 0.0332296 -3.30184 0.0711316 0.0475308 -0.0338105
1790 1 0.375089 0.124909 0.0504967 0.0455987 -3.31382 0.0232569 0.0404195 -0.0665774
195 1 0.425288 0.100296 0.0252584 0.0187374 -3.2975 -0.0470737 -0.0692349 0.0176464
1797 1 0.450228 0.0999213 0.0504689 0.0418083 -3.30238 -0.0348281 0.0181203 -0.0682395
200 1 0.450112 0.125147 0.0249028 0.0126925 -3.28411 0.0243319 -0.0274926 0.0324531
1794 1 0.42533 0.125371 0.0499457 0.0235377 -3.29267 -0.00785139 -0.102119 0.0502221
203 1 0.524843 0.0998082 0.0248448 0.0248202 -3.28229 -0.0413243 0.0546195 0.0615436
204 1 0.499805 0.124611 0.0252405 0.0522501 -3.28795 -0.0121037 0.0964131 -0.0442742
1798 1 0.474734 0.12502 0.0500844 0.0244521 -3.29645 0.0608669 -0.00669445 0.0412947
283 1 0.524254 0.150225 0.0247598 0.0435069 -3.29118 0.10464 -0.0141992 0.113604
1802 1 0.524844 0.125261 0.04996 0.0146918 -3.28939 0.00787426 -0.0615956 0.027086
208 1 0.549618 0.125333 0.0252693 0.0280491 -3.29606 -0.0320044 0.0307702 -0.0360948
206 1 0.574494 0.124796 0.000513685 0.0406524 -3.29442 -0.0150601 0.0726027 -0.120599
287 1 0.575116 0.150365 0.025223 0.0422294 -3.29361 -0.126659 -0.00774136 0.0288031
212 1 0.599467 0.125124 0.0250784 0.0226075 -3.29285 0.0598346 -0.0139666 -0.0265665
210 1 0.625026 0.124873 -0.000182657 0.042223 -3.29998 -0.091045 0.0831984 0.109183
1810 1 0.624216 0.12504 0.0499722 0.0416391 -3.30455 0.0481197 -0.0174004 -0.00132075
1817 1 0.699607 0.10012 0.0498019 0.0242542 -3.27654 0.0314402 -0.0610464 0.0216506
215 1 0.675037 0.100395 0.0249007 0.025986 -3.29193 -0.0916107 -0.10985 -0.0485829
216 1 0.649652 0.125352 0.0249643 0.0177775 -3.30082 0.0421592 -0.0277775 0.0266829
220 1 0.699382 0.125038 0.0251731 0.0437539 -3.28497 0.115127 0.0541374 -0.0601136
214 1 0.67494 0.124896 -0.00019261 0.0296378 -3.30098 -0.0251249 0.0252133 0.0487764
295 1 0.67476 0.150038 0.0251753 0.0179122 -3.29275 0.0403203 0.0573257 -0.00487179
297 1 0.699548 0.150185 -0.000121524 0.0406581 -3.30886 0.0794134 -0.057506 0.0775127
1814 1 0.674892 0.125318 0.0501194 0.0196327 -3.29377 -0.0337242 0.030233 -0.00471991
219 1 0.724917 0.100252 0.0252734 0.0512761 -3.29925 -0.0695823 -0.0918467 -0.0222312
224 1 0.749908 0.125034 0.0247592 0.0488686 -3.28607 0.016605 -0.0557477 0.0622003
1821 1 0.750219 0.0997275 0.0502057 0.0518686 -3.28466 -0.103259 0.0358974 -0.0571709
223 1 0.775033 0.0999556 0.025058 0.00769011 -3.29553 -0.00191817 -0.0122539 0.0508622
228 1 0.800284 0.124753 0.0250438 0.0196319 -3.30424 -0.000575673 0.0294672 0.0640905
303 1 0.775057 0.149709 0.0255145 0.0569384 -3.30983 -0.0186407 0.0323883 -0.143162
1822 1 0.774529 0.124714 0.0498684 0.0403721 -3.30223 0.0954333 0.0268523 0.000723169
231 1 0.875052 0.0999093 0.0253528 0.0341597 -3.2968 0.0516616 0.0420371 -0.133845
232 1 0.850275 0.125305 0.024788 0.0418955 -3.29401 -0.0233451 -0.0295506 0.0276798
311 1 0.875407 0.149931 0.0252364 0.019309 -3.30072 0.0798779 0.0386362 -0.0813954
307 1 0.824697 0.150071 0.025042 0.0413654 -3.30535 0.0993385 -0.0128355 -0.013657
1826 1 0.825801 0.125006 0.0500418 0.0498679 -3.30261 -0.0949358 0.0261881 -0.0644002
236 1 0.90036 0.1251 0.0247691 0.0333366 -3.30625 -0.047223 -0.0834249 0.0543935
234 1 0.925102 0.124788 -0.000143295 0.0247154 -3.29568 0.117873 -0.0780533 0.0252421
315 1 0.925429 0.149879 0.0250696 0.0113619 -3.30042 -0.0536319 0.0429615 -0.0772712
164 1 1.00076 0.12472 0.0252683 0.0384055 -3.28674 -0.080205 0.0492987 0.100865
239 1 0.975899 0.100014 0.0251273 0.0429911 -3.29281 -0.0582522 -0.0226498 0.0439585
240 1 0.950342 0.12497 0.0247836 0.0209972 -3.2912 -0.0487924 -0.107739 0.015422
238 1 0.975365 0.125004 0.000229102 0.0377604 -3.28441 0.0464456 -0.026067 -0.0212941
317 1 0.950322 0.149889 -0.000301193 0.0256327 -3.29794 -0.0427701 -0.011685 0.0642148
248 1 0.0507289 0.174849 0.0253353 0.0619961 -3.29265 -0.0526019 0.0318482 -0.0243787
244 1 -0.000228566 0.174931 0.0246718 0.0678472 -3.2945 -0.0734986 -0.0751756 0.118536
321 1 0.000340067 0.20022 0.000116639 0.0216684 -3.30132 -0.0513176 -0.111557 -0.0112319
252 1 0.100552 0.174682 0.0251832 0.0193917 -3.30057 -0.0798428 -0.0559793 -0.0559132
246 1 0.0750979 0.174805 0.000102889 0.0140978 -3.28999 0.136979 0.0233338 0.0592848
1929 1 0.100376 0.200116 0.050263 0.0350339 -3.29365 0.0425168 -0.00898541 0.00849496
256 1 0.150117 0.174876 0.0247907 0.0109446 -3.28463 -0.0275112 -0.0084896 0.0428365
254 1 0.175295 0.175062 0.000144581 0.0307614 -3.30254 0.00132049 0.000444692 -0.0602873
250 1 0.12537 0.174626 -3.87805e-05 0.0128815 -3.28465 -0.0893842 -0.0161673 0.00669312
335 1 0.17482 0.199932 0.0252614 0.0221393 -3.29596 0.0522006 0.0151595 -0.0786647
333 1 0.14979 0.199785 -0.000139405 0.0165337 -3.29213 0.0448077 0.00646029 0.0775554
260 1 0.200417 0.17513 0.025127 0.0440403 -3.28535 -0.0505843 0.00142918 -0.112241
337 1 0.199741 0.200251 6.64212e-05 0.021393 -3.30166 -0.00175763 -0.0210794 -0.0553553
263 1 0.274412 0.150534 0.0248247 0.0406248 -3.28171 0.00824279 -0.0973269 0.0476568
264 1 0.249511 0.175139 0.0248542 0.0229669 -3.29276 -0.104618 0.0764669 -0.0123465
343 1 0.274659 0.199987 0.0249663 0.0201329 -3.29527 0.00539664 0.0736708 0.0386673
1862 1 0.274422 0.175447 0.0495941 0.0596093 -3.29566 0.0319005 -0.0225872 0.101076
267 1 0.324955 0.150051 0.0246455 0.0315909 -3.29832 0.0367827 0.0141857 0.0968667
268 1 0.299692 0.17515 0.0248439 0.0105654 -3.29078 0.0842221 0.0282637 0.0419116
272 1 0.349714 0.175083 0.0247694 0.0109741 -3.29036 0.0627618 -0.0408182 0.0358317
1866 1 0.324667 0.17522 0.0497735 0.0103887 -3.30055 0.023033 -0.00552784 0.0542632
265 1 0.299958 0.150136 0.000103133 0.0303722 -3.29768 0.00280764 0.0294983 -0.0664866
1873 1 0.40012 0.150093 0.0498073 0.0205641 -3.30735 -0.063173 0.0293781 0.07876
276 1 0.399839 0.175176 0.0248383 0.0258285 -3.30128 0.0662174 -0.0202131 0.0996696
1870 1 0.37487 0.175172 0.0500349 0.00721188 -3.3084 -0.0236621 -0.0116292 0.0225456
353 1 0.400233 0.200444 -0.000101846 0.0322733 -3.29421 -0.136084 -0.00501161 0.088085
275 1 0.425492 0.150409 0.0251045 0.0265446 -3.28154 -0.0251203 -0.00310323 -0.000678839
280 1 0.450323 0.175281 0.0249027 0.0111618 -3.30735 0.0289326 0.0244038 0.0321178
355 1 0.424929 0.200382 0.0250319 0.0112845 -3.30929 0.0430607 -0.0388171 0.0449106
279 1 0.475041 0.149868 0.0250686 0.0258396 -3.29388 -0.00335284 0.049243 -0.0733043
1881 1 0.499937 0.149916 0.0497803 0.0331216 -3.28366 -0.114898 0.0146604 0.038883
284 1 0.499378 0.1751 0.0246307 0.0571738 -3.28106 0.0531115 -0.0129841 0.100058
1882 1 0.524383 0.175086 0.0501871 0.033552 -3.29656 0.0205396 0.059779 -0.107189
281 1 0.500162 0.149936 -0.000112901 0.0360928 -3.2835 -0.0974553 0.0618097 -0.0556138
278 1 0.47514 0.175058 -0.000221366 0.0217638 -3.28829 -0.0123676 0.0585274 -0.0192819
282 1 0.524501 0.175414 6.3508e-05 0.0226851 -3.27857 0.048324 -0.102979 0.0261073
285 1 0.549449 0.150177 0.000331392 0.0172796 -3.3049 0.0453831 0.00933802 0.0191591
288 1 0.549356 0.175535 0.0253001 0.0365304 -3.30616 0.0504445 -0.127296 -0.0917767
286 1 0.575121 0.175132 0.000327989 0.0328528 -3.30319 -0.141052 0.00576498 0.0358456
291 1 0.624424 0.150131 0.0251954 0.022744 -3.28653 0.00174098 -0.0569111 -0.05472
292 1 0.600114 0.174941 0.0255016 0.0454848 -3.2886 -0.0157609 0.138714 -0.0635869
290 1 0.624905 0.174992 0.000130335 0.0181299 -3.29625 -0.1066 0.00528828 0.0214299
1889 1 0.599587 0.150372 0.050603 0.0627808 -3.29992 -0.0399083 0.021593 -0.155489
296 1 0.649458 0.175101 0.0250347 0.0314629 -3.28502 0.0691241 -0.0795258 0.0573928
293 1 0.649997 0.150193 0.000283696 0.0318273 -3.30464 -0.0713718 -0.0870658 -0.0727099
300 1 0.699987 0.175081 0.0251672 0.0148688 -3.30402 0.0229808 -0.00940337 -0.0551209
294 1 0.674708 0.175016 7.55742e-05 0.0174059 -3.29907 0.0555457 0.124284 0.0505354
373 1 0.64963 0.200102 0.000366075 0.0192983 -3.29433 0.0332015 0.00303422 -0.0849024
1897 1 0.700108 0.150163 0.0499928 0.0282731 -3.29493 0.0150364 -0.0931578 -0.00933937
299 1 0.724978 0.149582 0.0250806 0.0322394 -3.29376 -0.13399 0.0709605 -0.0800601
304 1 0.749745 0.17482 0.0252914 0.0145604 -3.28174 0.041317 -0.0927686 -0.0484906
298 1 0.725137 0.174853 0.000259684 0.0183166 -3.30034 -0.0261825 0.0470359 0.00572487
1901 1 0.749331 0.149701 0.0499558 0.0466447 -3.28147 0.00504152 -0.00175939 -0.0109884
1981 1 0.749832 0.200233 0.0502737 0.0409727 -3.29062 0.0856769 -0.0719405 0.00508813
308 1 0.79993 0.174825 0.0247591 0.0243965 -3.29958 -0.0820757 0.0523679 0.0508607
383 1 0.774488 0.199517 0.0251088 0.0474613 -3.29124 0.074805 0.03424 -0.032862
1905 1 0.800063 0.149773 0.0501292 0.0291878 -3.29923 0.0355592 -0.00629188 -0.0252026
385 1 0.800337 0.199957 -0.000153016 0.0457813 -3.31172 -0.121403 -0.0654872 -0.000126522
312 1 0.850529 0.174945 0.0250512 0.0135878 -3.31432 -0.0571207 0.00547741 -0.0460502
391 1 0.875668 0.2001 0.0252859 0.051148 -3.30061 -0.0760945 0.00422571 -0.0196568
1906 1 0.824752 0.175221 0.0496662 0.039998 -3.30298 0.0106929 -0.109857 0.0479732
310 1 0.875682 0.174633 9.51717e-05 0.0268273 -3.29309 -0.0496265 -0.0434026 0.0311147
387 1 0.8251 0.200052 0.0249574 0.0411665 -3.28795 -0.0503456 -0.178913 -0.0260318
1989 1 0.850124 0.199788 0.0499269 0.0124495 -3.29716 0.0370394 0.013382 0.0126453
306 1 0.82493 0.174813 -0.00015484 0.0134646 -3.30044 0.0664558 -0.0382712 0.0490395
313 1 0.900462 0.149484 -0.000351392 0.0621195 -3.29457 -0.0171248 0.103979 0.180947
316 1 0.900468 0.175139 0.0253395 0.0273706 -3.28688 -0.0267985 -0.102949 -0.0871601
314 1 0.925235 0.174874 0.000259309 0.0185987 -3.30045 0.0494104 -0.00478132 -0.0401942
393 1 0.900019 0.199749 0.000133023 0.0314135 -3.29384 0.0130605 0.0906554 -0.0394227
319 1 0.975212 0.14945 0.0249606 0.0406196 -3.30568 0.0639328 0.100758 0.0384153
320 1 0.950466 0.174973 0.0247543 0.0426259 -3.29328 -0.03644 -0.0327839 0.106048
318 1 0.974937 0.174967 -4.19867e-05 0.0312837 -3.29814 0.110386 -0.0209232 -0.0621441
1841 1 0.999763 0.149906 0.0506095 0.0801755 -3.31459 0.072357 -0.0727329 -0.138831
323 1 0.0250457 0.199633 0.0251965 0.0455089 -3.2957 0.0101694 0.0330291 0.0117726
328 1 0.0501122 0.224692 0.0247215 0.0554369 -3.29827 -0.0124642 0.0322797 0.0956117
322 1 0.0253018 0.225081 6.8447e-05 0.0167256 -3.27167 -0.00552482 -0.0790937 0.0277441
325 1 0.0500394 0.199712 0.000308578 0.0266899 -3.30027 0.0730545 0.0504889 0.00541026
327 1 0.0757914 0.1998 0.0251397 0.0402135 -3.30443 -0.0563209 0.000495271 -0.00848455
332 1 0.10025 0.225256 0.024718 0.0585525 -3.28432 0.143581 -0.0728474 0.1331
407 1 0.0754497 0.249943 0.0250823 0.0205791 -3.29841 -0.0615272 0.0805316 0.0525579
329 1 0.100613 0.199693 0.00021925 0.0300235 -3.29984 -0.046685 0.0129286 -0.127504
409 1 0.100338 0.249879 0.000234633 0.0151422 -3.28138 0.00966364 -0.0421985 -0.0430566
331 1 0.124987 0.199824 0.0250074 0.0147809 -3.28686 0.0374805 0.0515289 0.0325146
336 1 0.149874 0.224973 0.0250631 0.00749248 -3.28952 -0.00124838 0.00846757 0.00441402
411 1 0.125089 0.250315 0.0252386 0.0127867 -3.29305 -0.0172129 -0.049585 0.0141504
330 1 0.125334 0.22501 4.47987e-05 0.017219 -3.28822 -0.00500604 -0.0138578 -0.0464659
339 1 0.224861 0.200528 0.0247507 0.0367978 -3.29953 0.0161149 -0.0420899 -0.00299041
340 1 0.199591 0.225095 0.0247711 0.01626 -3.29949 0.00929825 0.0147353 0.0568129
419 1 0.224884 0.250195 0.0248205 0.00998121 -3.29388 -0.102675 -0.0337625 -0.00615646
1938 1 0.22482 0.225591 0.0496351 0.0437398 -3.29938 -0.0304562 -0.101503 0.016102
344 1 0.250156 0.225483 0.0247001 0.0266865 -3.29292 -0.00845877 -0.0726136 0.0209711
423 1 0.275445 0.250039 0.0250074 0.0379977 -3.29469 -0.0599916 0.0789697 -0.00624022
2021 1 0.249839 0.250253 0.0497236 0.0103514 -3.28631 0.0240466 0.0149699 0.0619166
347 1 0.325188 0.200109 0.0246632 0.0471966 -3.303 -0.0497812 0.0150396 0.0925597
348 1 0.299922 0.225072 0.0251557 0.016547 -3.29566 -0.0747991 -0.0846712 -0.0283319
352 1 0.349768 0.225387 0.0249862 0.0220255 -3.29549 0.0695133 -0.12927 0.0665191
1949 1 0.34965 0.200392 0.0500225 0.0194296 -3.30352 0.00248472 -0.0294825 -0.0250385
351 1 0.374658 0.199796 0.0251406 0.0586563 -3.30696 0.0110387 0.141125 -0.0677033
356 1 0.399462 0.225369 0.0249068 0.0467638 -3.29487 0.0811773 -0.100078 0.0313069
1950 1 0.375103 0.225459 0.0500051 0.0180619 -3.29449 -0.0208112 -0.0429281 -0.00916538
433 1 0.399811 0.250272 -0.000276655 0.0357064 -3.29846 0.013052 -0.0670765 0.0187352
2033 1 0.400226 0.250442 0.0500227 0.0231886 -3.30306 -0.00735051 -0.0253454 -0.049478
350 1 0.374831 0.225202 1.97166e-05 0.0157182 -3.29422 0.00678824 -0.0316682 -0.0368166
360 1 0.450196 0.225212 0.0249929 0.00912045 -3.2873 0.00752713 0.0480584 0.0094085
1954 1 0.425124 0.225023 0.0499264 0.0184165 -3.29658 -0.0539889 0.0152415 -0.0695145