ITEM: TIMESTEP
12000
ITEM: NUMBER OF ATOMS
32000
ITEM: BOX BOUNDS pp pp pp
4.8567280885055117e+00 7.6143271911489336e+01
-2.0564150972575419e+00 8.3056415097251929e+01
-2.0605453534403253e+00 8.3060545353436126e+01
ITEM: ATOMS id type xs ys zs c_csym c_peratom fx fy fz
8 1 0.0504529 0.0252974 0.0253092 0.0448423 -3.31447 -0.10253 -0.00552128 -0.0943183
1602 1 0.0249427 0.0251033 0.0503924 0.0142719 -3.31478 0.0481956 0.00636995 -0.0496535
83 1 0.0247785 0.0498866 0.025158 0.0290799 -3.30533 0.074744 0.0310705 -0.0169389
1685 1 0.0499845 0.0504564 0.0501811 0.0352241 -3.30191 -0.00282863 -0.0503056 -0.0418844
12 1 0.099894 0.0250167 0.0253844 0.0291755 -3.3002 -0.0728167 0.0424058 -0.115156
6 1 0.0752338 0.0251728 -0.000247711 0.0312465 -3.29813 0.0356149 -0.000360337 0.0732367
87 1 0.0753194 0.0503665 0.0251357 0.0238008 -3.30076 -0.00882474 -0.0641699 -0.0562541
1609 1 0.100075 0.000183034 0.0501562 0.0125702 -3.30385 -0.0887647 -0.0253856 0.0136395
16 1 0.150152 0.025338 0.0251304 0.0390136 -3.30295 -0.0335457 -0.0937769 0.0656916
15 1 0.174794 0.000258153 0.025204 0.0218465 -3.30392 0.0883827 -0.060234 -0.00253225
11 1 0.124516 -1.2205e-05 0.0253197 0.0402899 -3.30507 0.165381 0.00279098 -0.0284594
91 1 0.124535 0.0499922 0.0249517 0.0417319 -3.3059 0.0676611 0.0487477 -0.014523
95 1 0.175033 0.0500443 0.024963 0.0163076 -3.29066 -0.00574706 0.0343932 0.0128276
1614 1 0.174695 0.0249977 0.050558 0.0664318 -3.30473 0.071493 -0.0133866 -0.126569
1693 1 0.150036 0.0501935 0.0498411 0.0152292 -3.30239 -0.0783971 -0.0608286 0.0423032
1613 1 0.149984 5.60482e-05 0.050207 0.00771227 -3.30298 -0.00856264 0.0380064 -0.0348131
20 1 0.199865 0.0250612 0.0249908 0.0107996 -3.31275 0.0174192 -0.000215072 0.0223583
19 1 0.22507 -7.47314e-05 0.024909 0.0143973 -3.29667 -0.00341165 -0.0307171 0.00122197
1618 1 0.225078 0.0249223 0.0498774 0.0170229 -3.29639 0.0308605 0.0851449 0.0222434
1617 1 0.200337 0.00024092 0.0499584 0.0422611 -3.30497 -0.117557 -0.0553881 0.00749718
24 1 0.250064 0.0246526 0.0250659 0.0104692 -3.30357 0.0604635 0.117836 -0.0136267
23 1 0.274904 -0.000117281 0.0251723 0.0160509 -3.30528 0.0114159 -0.064376 -0.0432482
22 1 0.275356 0.024635 2.98889e-05 0.0235182 -3.30383 -0.087174 0.0567974 0.017661
1622 1 0.274976 0.024468 0.0504201 0.0429108 -3.30512 0.0693676 0.0803662 -0.0602609
28 1 0.299965 0.0246789 0.0251341 0.00965547 -3.30437 0.0128533 0.0345931 0.0713789
26 1 0.325028 0.0246259 5.83316e-05 0.0156277 -3.30814 -0.0421246 0.0559827 0.00681481
32 1 0.350255 0.025098 0.0252222 0.023251 -3.29356 -0.0512107 -0.0666103 -0.0468566
25 1 0.300021 -0.00037003 5.4796e-06 0.0068982 -3.2983 0.0140431 0.0345382 0.00795246
27 1 0.325038 -0.000244233 0.0249529 0.00830428 -3.3071 0.0382703 0.0277517 0.0557436
29 1 0.349988 -0.000200311 0.000226445 0.0144054 -3.30641 0.0385832 -0.0127557 -0.0288267
1625 1 0.300091 -0.000345149 0.0500096 0.0115542 -3.30743 0.0560308 0.0532085 0.0323748
109 1 0.349994 0.0497341 -0.000224517 0.0292789 -3.30012 -0.108023 0.1063 0.0881621
36 1 0.400441 0.02523 0.024843 0.0443255 -3.31091 -0.174274 0.0235012 0.0767986
111 1 0.374848 0.050312 0.0248513 0.0115101 -3.309 0.0465224 -0.0645666 -0.00172395
1713 1 0.399825 0.0504052 0.0499166 0.0116582 -3.29721 0.0492697 -0.08528 -0.0189858
31 1 0.374978 0.000207059 0.0253724 0.0267429 -3.30588 -0.00372494 -0.0270561 -0.107801
1630 1 0.374935 0.0250707 0.0501694 0.0123184 -3.3141 0.0377476 0.017217 -0.0281559
113 1 0.399955 0.0505401 -0.000401158 0.0312874 -3.30809 -0.0197408 -0.0796186 0.0893518
115 1 0.424979 0.0501049 0.0249588 0.0144188 -3.30281 -0.0284725 0.0477848 0.0178257
40 1 0.449684 0.0246912 0.0251337 0.0555839 -3.30722 0.059624 0.137644 -0.006428
117 1 0.449721 0.0500977 0.000271704 0.0263293 -3.30267 0.0884967 0.0335056 -0.0963585
37 1 0.449755 0.000209265 9.38075e-06 0.0162836 -3.31229 0.0834739 -0.00813912 -0.0541724
44 1 0.499883 0.0251786 0.0252245 0.0201755 -3.29472 0.0221978 -0.0669984 -0.0809368
121 1 0.499908 0.0497767 -3.01054e-05 0.0402812 -3.29473 0.0672558 0.13374 -0.0574216
39 1 0.474786 -8.7433e-05 0.0248384 0.0193561 -3.30019 -0.0204243 0.0363124 0.101923
1642 1 0.524357 0.0249669 0.0498109 0.0662352 -3.29607 0.102194 0.0335614 0.112936
48 1 0.549415 0.0252498 0.0252213 0.0353501 -3.29607 0.0503741 0.0118813 -0.0789883
1646 1 0.574744 0.0252969 0.049524 0.0493489 -3.29856 0.033188 0.0485096 0.124163
46 1 0.574503 0.0252709 0.000118858 0.0229544 -3.30487 0.0830351 0.0810883 0.0199703
52 1 0.599912 0.0254336 0.0248243 0.0176598 -3.30646 0.0211474 -0.0257757 -0.0214589
50 1 0.624616 0.0254224 -0.000307228 0.0221554 -3.30409 0.00650825 -0.0628989 0.0205341
56 1 0.650037 0.0249138 0.0243965 0.0640387 -3.31497 -0.0475004 0.075484 0.144683
60 1 0.70001 0.0247116 0.0249158 0.0273625 -3.31172 -0.0446661 0.0121607 -0.0422782
135 1 0.6751 0.0501521 0.0248111 0.0137964 -3.30293 -0.0508032 -0.0280926 0.0803379
137 1 0.699793 0.0497816 6.12497e-05 0.0352619 -3.29518 0.00385645 0.114903 -0.110866
133 1 0.650307 0.0503275 0.000107458 0.0380871 -3.30811 -0.107391 0.0184734 -0.0286198
1654 1 0.674991 0.0246934 0.049789 0.0294352 -3.30894 -0.0552436 0.127433 0.0512749
53 1 0.649249 0.000216318 -0.000289625 0.0438173 -3.30547 0.0847888 -0.00919053 0.0226679
64 1 0.749924 0.025358 0.0247213 0.0220759 -3.31664 -0.0025604 -0.0389431 0.0401782
1658 1 0.724945 0.0250911 0.0500961 0.0095608 -3.30649 -0.0145824 0.00679897 -0.0552087
139 1 0.724504 0.0498445 0.0247972 0.0436392 -3.29061 0.0510217 0.0153294 0.0722748
68 1 0.799764 0.0253379 0.0251934 0.0213492 -3.31041 0.0075937 -0.0345258 -0.0114779
143 1 0.775237 0.0504696 0.0250321 0.0405624 -3.31229 0.0595549 -0.0688318 -0.0402841
1662 1 0.774861 0.0252305 0.050037 0.0103926 -3.29415 -0.0788135 0.039626 -0.0529141
62 1 0.775053 0.0251999 -0.000319299 0.0249834 -3.29692 0.032763 0.0378071 0.073826
72 1 0.850453 0.0253671 0.024759 0.0412904 -3.30096 -0.100023 -0.0751478 0.0386955
147 1 0.824738 0.0501841 0.0251416 0.0333202 -3.31683 0.0633873 0.00606554 0.0186832
149 1 0.849691 0.0500916 -3.29606e-05 0.0353441 -3.30077 0.060285 -0.0380323 0.0768438
66 1 0.82497 0.0250566 0.000208666 0.0328999 -3.29785 0.0456458 0.0390509 -0.064777
76 1 0.900628 0.0250131 0.0248671 0.02933 -3.30343 -0.118053 -0.0010913 0.0395271
1753 1 0.900045 0.0502486 0.0501242 0.0193037 -3.30013 0.0155534 -0.104392 0.00770946
155 1 0.925042 0.0500291 0.0252297 0.0151306 -3.29483 0.0293351 0.00921518 -0.0239801
4 1 0.999942 0.0250074 0.0250359 0.0111008 -3.29612 -0.0251199 0.0562856 -0.00889751
1681 1 0.999802 0.0499683 0.0500725 0.0212156 -3.2939 0.0485223 0.0592151 0.00615133
80 1 0.950158 0.0249255 0.0249795 0.0119865 -3.31362 0.0260487 0.053284 0.0851226
1678 1 0.975319 0.0249514 0.0502244 0.0202903 -3.30092 -0.0834772 0.0200886 -0.0121049
159 1 0.975149 0.0502675 0.0250936 0.0139407 -3.30597 -0.0492571 -0.0575177 -0.0317484
78 1 0.97495 0.0254582 -0.000156741 0.0349749 -3.30523 -0.0106914 -0.0765399 0.0269338
88 1 0.0499661 0.0747941 0.0248646 0.0370087 -3.31312 0.0621438 0.0555963 0.0594181
84 1 9.24532e-05 0.0751891 0.0252 0.0165312 -3.30892 -0.0453635 0.00638491 -0.0308861
165 1 0.0498857 0.0998388 -0.000164845 0.030265 -3.29628 0.052048 0.0436686 -0.00740122
1682 1 0.0247436 0.0751565 0.0501543 0.0240059 -3.29671 0.0964467 -0.0249958 -0.0235272
1761 1 -0.000143074 0.0996961 0.049701 0.0680573 -3.30672 -0.00576034 0.158589 0.078694
92 1 0.100055 0.0752309 0.0248603 0.00432657 -3.29769 0.0419398 0.0262728 -0.00187852
86 1 0.0751985 0.0752896 -0.000313198 0.021635 -3.30725 -0.00393217 -0.033308 0.0433846
1686 1 0.075456 0.0753309 0.0500362 0.0257886 -3.29525 -0.0413908 -0.054009 -0.0352301
167 1 0.0752732 0.100198 0.0246373 0.022591 -3.31277 -0.0176179 -0.0730795 0.0395283
96 1 0.149891 0.0750877 0.0247329 0.0178569 -3.30882 -0.0698632 -0.0365489 0.0387462
90 1 0.124727 0.0750797 -0.000272882 0.0219588 -3.30618 0.0793366 -0.0476921 0.00759155
1694 1 0.174587 0.0748187 0.05001 0.0306949 -3.29609 0.119446 0.0760643 -0.0391621
1690 1 0.125073 0.0752251 0.0499451 0.00576114 -3.30485 -0.00817304 -0.0437095 -0.0111055
99 1 0.225243 0.0500542 0.025311 0.0240522 -3.3226 0.00847229 -0.026909 -0.0614607
100 1 0.199852 0.0751486 0.0250031 0.0139021 -3.30917 -0.00960485 -0.00114037 -0.0302594
1698 1 0.224786 0.0748845 0.0497468 0.0424579 -3.31712 0.0935126 -0.0216301 0.105098
1697 1 0.199694 0.0498177 0.0499441 0.0234664 -3.30462 0.056353 0.0262435 0.0190386
103 1 0.275126 0.0499355 0.0249378 0.0236487 -3.30624 0.00657782 -0.0761355 0.113039
104 1 0.250481 0.0751755 0.0252944 0.0332939 -3.29363 -0.103217 -0.0588704 -0.0374544
1701 1 0.250595 0.0497769 0.0503817 0.0655884 -3.30847 -0.0495184 0.0219076 -0.0924762
101 1 0.250255 0.0497613 -4.90097e-05 0.013264 -3.30939 -0.0288317 -0.00230634 0.0123376
107 1 0.325052 0.0496124 0.0252621 0.0281566 -3.30435 -0.0696928 0.0992513 -0.0574151
108 1 0.299921 0.075179 0.025165 0.0185473 -3.30174 0.060512 -0.0964526 -0.0139452
112 1 0.349718 0.0750524 0.0250867 0.0122117 -3.30675 0.0285073 -0.0283106 0.0166871
106 1 0.325103 0.0750622 3.02584e-05 0.013914 -3.30087 0.0499787 -0.105364 -0.00537658
1705 1 0.30004 0.0499051 0.0505164 0.0230256 -3.31136 -0.0788368 -0.0541541 -0.139162
105 1 0.300254 0.0500749 0.000341862 0.0404841 -3.31571 -0.0171795 -0.0463944 -0.129684
189 1 0.349844 0.100129 0.000129331 0.0136306 -3.28556 0.00104546 -0.0400826 -0.0698542
191 1 0.374709 0.100212 0.024825 0.0215038 -3.30639 0.0766621 -0.0725933 0.0394395
116 1 0.3999 0.0751448 0.0248334 0.00726373 -3.31201 0.0281747 0.0590162 0.000498843
110 1 0.37459 0.0751426 -0.000182279 0.0180856 -3.30371 0.027863 -0.00408933 0.0559726
193 1 0.400043 0.099925 -0.000187648 0.0322214 -3.30315 -0.0550904 0.0833914 0.114223
120 1 0.450153 0.0750317 0.0247836 0.0247256 -3.30902 -0.120862 0.0493223 0.0553043
195 1 0.424908 0.100506 0.0250932 0.02484 -3.30126 -0.0480886 -0.147615 -0.0976451
1797 1 0.449905 0.100376 0.0498865 0.010342 -3.2867 -0.0133779 -0.0602609 -0.0342795
123 1 0.524762 0.050389 0.0249779 0.0172067 -3.30886 0.0514038 -0.00492147 -0.00558786
119 1 0.475132 0.0499278 0.0248291 0.0231757 -3.30462 -0.0569134 0.000872161 0.10663
124 1 0.499781 0.0752597 0.0248223 0.0132577 -3.29659 0.0359161 0.00663504 0.0611353
118 1 0.475085 0.0750103 0.000300927 0.0395584 -3.30172 -0.0266675 0.0400342 -0.169437
122 1 0.524656 0.075307 -1.19502e-05 0.0126179 -3.3118 0.0171677 -0.0112291 -0.017542
199 1 0.474837 0.100438 0.0246672 0.0306804 -3.30089 0.0335438 -0.0416752 0.0778808
1718 1 0.474744 0.0753294 0.0494919 0.0300052 -3.3001 0.0315073 -0.041377 0.0693806
1722 1 0.525062 0.0754487 0.0496758 0.0257612 -3.2931 -0.000588815 -0.0608341 0.0228257
127 1 0.574617 0.0502766 0.0251513 0.0256561 -3.31141 0.0591887 -0.0351473 -0.0521507
128 1 0.55025 0.0751866 0.0251532 0.0328272 -3.31572 -0.0140252 0.0945479 -0.102838
1726 1 0.575215 0.0753277 0.0500431 0.0221493 -3.29889 -0.106502 -0.072059 -0.000193137
1725 1 0.549863 0.0502687 0.0501821 0.0192229 -3.30995 -0.0630392 -0.0131938 -0.0240211
1805 1 0.549699 0.100243 0.0500296 0.0205448 -3.29595 0.0875383 -0.0178332 -0.0522329
131 1 0.624961 0.0505933 0.0249996 0.037113 -3.30518 0.0663591 -0.103269 -0.00238248
132 1 0.599678 0.075318 0.0251063 0.0256813 -3.30228 0.0363806 -0.0396175 -0.0117987
211 1 0.624913 0.100267 0.0250747 0.00986714 -3.30076 0.0122349 0.0184271 0.0122177
130 1 0.624487 0.0752653 0.000102564 0.0320227 -3.30604 0.070479 -0.0328641 -0.00431589
136 1 0.64983 0.0754791 0.0252568 0.0262714 -3.30728 0.0272928 -0.070902 -0.0880795
140 1 0.700316 0.0750734 0.0249645 0.0153318 -3.29659 -0.0861719 0.0458301 -0.00856838
213 1 0.649801 0.100091 0.000258254 0.0192247 -3.3077 0.0489609 -0.0393718 -0.0490982
1813 1 0.649794 0.100521 0.0502204 0.0569634 -3.29574 0.0483536 -0.183726 -0.075266
1817 1 0.700018 0.100099 0.0498269 0.00736596 -3.30732 -0.0118122 -0.0469509 0.0356781
134 1 0.675395 0.0752994 0.000194895 0.0337931 -3.30593 -0.0850008 0.00785748 0.0305177
217 1 0.700492 0.100123 1.35749e-05 0.0194367 -3.30601 -0.054908 -0.00506 0.0261346
144 1 0.749892 0.0748935 0.0248228 0.0211434 -3.29099 0.0425719 0.00946777 0.0239243
1738 1 0.72506 0.0750642 0.0496196 0.0148743 -3.30461 -0.013669 0.00381972 0.12047
138 1 0.725263 0.0752157 4.50606e-05 0.0228245 -3.30627 -0.0576438 -0.114062 -0.0624151
148 1 0.80022 0.0755753 0.0248355 0.0460851 -3.30459 -0.0367408 -0.0625463 0.00868097
1745 1 0.800004 0.0502966 0.0503877 0.0387445 -3.30156 -0.0441779 -0.0440891 -0.0706096
223 1 0.774751 0.100307 0.0251473 0.0378977 -3.30524 0.12205 -0.0463388 -0.0878215
1742 1 0.77515 0.0751762 0.0496979 0.028817 -3.30845 -0.021078 0.00272481 0.0728413
1825 1 0.80058 0.0999428 0.0498701 0.0342488 -3.29814 -0.0513648 -0.0142238 -0.0224788
151 1 0.875295 0.0497122 0.0249641 0.036034 -3.30175 0.0126695 0.0858459 -0.0326774
152 1 0.850323 0.0748711 0.0251863 0.024881 -3.32139 0.0164598 -0.00291147 -0.0527736
150 1 0.875194 0.0746279 -0.000309968 0.0549289 -3.31368 0.0488167 0.0963791 0.10738
1829 1 0.850109 0.1001 0.0496888 0.0317534 -3.30004 -0.0331846 -0.0194504 0.0762202
231 1 0.875169 0.099945 0.0246998 0.0290686 -3.30885 -0.0093434 0.0374538 0.0346501
227 1 0.825308 0.100104 0.0248966 0.0149429 -3.29814 -0.00590157 -0.00755451 -0.0748382
1746 1 0.82531 0.0748397 0.050185 0.0278499 -3.29894 -0.0313975 0.0600642 -0.0384741
1750 1 0.875521 0.0753671 0.0503861 0.0570151 -3.29272 -0.159705 -0.0700758 0.00440147
156 1 0.899736 0.0748657 0.025404 0.0667073 -3.30489 0.0633458 0.0068893 -0.218303
1833 1 0.900067 0.100055 0.0502429 0.0231436 -3.29233 -0.0927281 0.0687222 0.0176124
1754 1 0.924846 0.0750185 0.0501351 0.0113497 -3.29881 0.0656247 -0.0116566 -0.00876969
154 1 0.925592 0.075076 -0.000275335 0.0451661 -3.30242 -0.174626 0.0373858 0.0891001
233 1 0.900391 0.10004 -9.07121e-05 0.0199971 -3.30958 -0.00684136 -0.0903752 0.0183844
160 1 0.949864 0.0749322 0.0250412 0.0127481 -3.30052 0.0411969 0.0132324 0.0587449
158 1 0.974764 0.0752317 0.000184265 0.0203262 -3.30954 0.10106 -0.0226738 0.0134868
1758 1 0.97478 0.0751812 0.0503546 0.0369471 -3.31237 0.0275563 -0.0704136 -0.0391969
163 1 0.0256163 0.100158 0.0250195 0.0508349 -3.30357 -0.126382 -0.0259766 -0.0168477
1765 1 0.0503322 0.0999762 0.0499231 0.0141121 -3.31132 0.0236892 0.0164613 0.051677
168 1 0.0503572 0.125003 0.0250563 0.0168042 -3.29563 -0.0154897 0.0291942 -0.00552868
164 1 0.000256366 0.124986 0.0249133 0.0227916 -3.31758 -0.00558412 0.0330953 0.0459643
245 1 0.0505781 0.150214 -0.000255334 0.0458184 -3.30343 -0.0608754 -0.0390051 0.0344516
172 1 0.0999763 0.125263 0.0252734 0.02723 -3.29946 -0.0249316 -0.0154772 -0.135866
247 1 0.074701 0.150279 0.0253191 0.0467066 -3.29991 0.132001 -0.0979482 -0.0123294
169 1 0.100419 0.10024 -0.0004867 0.0444647 -3.29447 -0.0901835 -0.0441811 0.102631
1766 1 0.0753518 0.124938 0.0499349 0.0230454 -3.29707 -0.0529486 0.0132388 0.100124
1769 1 0.100264 0.100007 0.0501317 0.012227 -3.29262 0.00225808 0.0326812 -0.0799416
175 1 0.174617 0.10035 0.0250716 0.034758 -3.31338 0.0632467 -0.0134728 -0.0327656
171 1 0.125085 0.100322 0.0248926 0.0122203 -3.30597 -0.0359788 -0.0261035 0.0642033
176 1 0.149771 0.125586 0.0249166 0.0518337 -3.29968 0.0324261 -0.0823764 0.101779
1773 1 0.150137 0.100281 0.0500136 0.0158728 -3.30465 -0.02757 -0.0134947 0.0303193
1770 1 0.124905 0.125052 0.0501245 0.0146667 -3.29246 0.0536246 0.00467806 -0.00401151
180 1 0.200205 0.125308 0.0248428 0.0667285 -3.3011 -0.0388707 -0.139599 0.124042
179 1 0.225348 0.0998764 0.0252059 0.022246 -3.31439 -0.0553393 0.0311847 -0.0387903
1778 1 0.224886 0.124645 0.0502976 0.0305334 -3.31071 0.0111724 0.0842457 -0.0693711
1777 1 0.199755 0.0997067 0.0498185 0.0375032 -3.29767 -0.00727534 -0.00782517 -0.0105097
183 1 0.275388 0.10001 0.0250529 0.0250478 -3.29346 -0.0753936 -0.00611675 -0.0516563
184 1 0.250436 0.124786 0.025531 0.0404457 -3.30153 -0.0601033 0.0196374 0.00340914
1861 1 0.250259 0.15005 0.0503859 0.0274479 -3.304 -0.0419513 -0.10247 -0.00385566
1781 1 0.250389 0.10024 0.0503274 0.0413684 -3.30891 -0.0358479 -0.056614 -0.0823219
1782 1 0.275757 0.12516 0.0503035 0.0671586 -3.29965 -0.0858854 0.00907898 -0.0128861
182 1 0.274758 0.124257 0.000269453 0.099761 -3.2994 0.098572 0.192611 -0.0551573
187 1 0.325135 0.100004 0.0250152 0.00921985 -3.29653 -0.0523781 0.00642232 0.062245
185 1 0.300665 0.0999648 -0.000194333 0.0505668 -3.30016 -0.0685039 -0.00623596 0.0563098
188 1 0.300013 0.12488 0.0250332 0.0244332 -3.29903 0.00900846 0.0699352 -0.0762773
192 1 0.350072 0.124934 0.0254028 0.0414193 -3.28568 0.0322019 0.025125 -0.0727882
267 1 0.32539 0.149639 0.024728 0.0616717 -3.30213 -0.0513564 0.0912076 0.02784
1869 1 0.350169 0.149967 0.0499832 0.0221998 -3.30745 -0.00820091 0.0186161 0.11127
1865 1 0.300208 0.150351 0.0502543 0.0653482 -3.29989 -0.055975 -0.0505401 -0.100205
1786 1 0.324738 0.125205 0.0498109 0.0544701 -3.31285 0.0364686 -0.0859539 0.141313
196 1 0.39956 0.125392 0.0252751 0.0504668 -3.29759 -0.0420717 -0.0678326 -0.159749
200 1 0.449779 0.125025 0.0250686 0.0294842 -3.30006 0.092771 0.159196 -0.141219
1877 1 0.449942 0.150142 0.0496297 0.0148577 -3.31349 -0.0388689 0.00459274 0.00272962
275 1 0.424485 0.149981 0.0245284 0.041768 -3.30807 0.0683261 0.0407856 0.0507996
203 1 0.524821 0.100445 0.0251703 0.0198471 -3.30458 0.0366902 -0.0683398 -0.0818532
204 1 0.499876 0.125409 0.0254232 0.0520001 -3.29971 0.0390458 -0.0820166 -0.125815
279 1 0.475309 0.150345 0.0247641 0.0295966 -3.30557 -0.00942833 -0.0663847 0.0091315
1798 1 0.4748 0.125162 0.0499273 0.0183165 -3.30334 0.00565569 0.0412993 0.0746991
201 1 0.499983 0.100132 7.34827e-05 0.0150651 -3.29697 -0.011411 -0.012966 -0.010155
202 1 0.52494 0.124891 -0.000173617 0.0319626 -3.30193 -0.0330893 0.0570841 0.100169
207 1 0.575225 0.100601 0.0249946 0.0407383 -3.30438 -0.0914028 -0.0761261 -0.0283909
208 1 0.549679 0.12527 0.0250202 0.0168248 -3.30049 -0.0215814 0.0336985 -0.0749516
206 1 0.574842 0.125322 6.80105e-05 0.0102891 -3.31186 -0.00219228 -0.0164159 0.0312715
285 1 0.549568 0.149986 -0.000270542 0.0409181 -3.31827 0.0369615 0.0319839 0.183898
212 1 0.600116 0.125365 0.0252249 0.0213469 -3.30117 0.00758266 -0.00782077 -0.0918998
210 1 0.625259 0.125204 1.78795e-05 0.0110859 -3.30728 -0.0144094 0.030288 0.0461903
209 1 0.600149 0.100458 -2.43676e-05 0.0191644 -3.30162 -0.0704674 -0.00747008 0.00952253
215 1 0.674835 0.100241 0.0252196 0.0277405 -3.29943 0.0475894 -0.118026 -0.0629975
216 1 0.650491 0.125135 0.0247815 0.0351418 -3.30981 -0.0686014 0.0605712 0.065445
220 1 0.699868 0.124664 0.0247841 0.0466796 -3.30635 0.0374632 0.089087 0.0611058
214 1 0.67528 0.12491 -0.000126518 0.0218576 -3.3077 -0.0243178 0.0323427 -0.0376033
219 1 0.725394 0.0999711 0.0250314 0.024548 -3.29709 -0.0342856 0.0589519 -0.0174422
224 1 0.750043 0.125129 0.0251933 0.0207725 -3.29954 -0.0539989 0.00315251 -0.0558104
1821 1 0.750166 0.100184 0.0498135 0.0109219 -3.30276 -0.0141766 -0.0204642 0.109474
1818 1 0.724826 0.125052 0.0500395 0.0167095 -3.29504 0.0065628 0.00187587 -0.0803194
299 1 0.72477 0.149627 0.0251526 0.0515482 -3.30585 0.0623119 0.0446811 -0.0413699
218 1 0.725035 0.12519 -0.000216059 0.0207203 -3.30451 0.0313939 -0.0163868 0.0754509
301 1 0.749754 0.150368 -0.00026769 0.0492758 -3.29939 0.119249 -0.11404 0.0645205
228 1 0.800378 0.125276 0.0251524 0.0373305 -3.30278 0.0334766 -0.0479965 -0.0906906
222 1 0.775232 0.125248 0.000377407 0.0624803 -3.30554 -0.0523705 0.0275702 -0.0836347
232 1 0.849888 0.125198 0.0250316 0.0308715 -3.30758 0.0804966 0.00859116 -0.0379326
230 1 0.875077 0.124985 -5.05982e-05 0.0156701 -3.30202 0.0434528 -0.0583985 -0.00531529
311 1 0.875639 0.150321 0.0249702 0.0669594 -3.30447 -0.193356 -0.066919 -0.0213828
1909 1 0.850053 0.150126 0.0497009 0.0166798 -3.29758 -0.0296154 -0.00416804 -0.00724375
1830 1 0.874847 0.125079 0.0498555 0.0158809 -3.30296 0.0418966 -0.00442784 0.0158478
229 1 0.850106 0.099984 -0.000219223 0.012355 -3.30171 0.00136195 -0.0183021 0.0276593
309 1 0.850407 0.149546 -0.000386828 0.0670724 -3.29975 -0.000222212 0.144233 0.0763512
235 1 0.924764 0.0996967 0.0254169 0.047452 -3.29517 -0.0460076 0.0861651 -0.0971311
236 1 0.899972 0.125115 0.0250721 0.0115056 -3.29844 -0.00199988 -0.0809639 -0.00441453
1834 1 0.924495 0.124948 0.0503559 0.0459954 -3.30596 0.108736 -0.0330266 -0.0133697
234 1 0.924669 0.125088 0.000138277 0.0176841 -3.30053 0.109187 0.0133519 -0.00717308
315 1 0.92459 0.150043 0.0248477 0.0160173 -3.29792 0.0571528 0.00162583 0.0320326
237 1 0.949805 0.100112 0.000653401 0.0704242 -3.29309 7.74947e-05 0.0788372 -0.136717
239 1 0.974921 0.10022 0.0250094 0.0128313 -3.29659 0.0350356 -0.0229954 0.000993954
240 1 0.949681 0.125105 0.0251744 0.0128856 -3.31186 -0.0687855 -0.0327779 0.0206361
319 1 0.974377 0.149955 0.0252864 0.0595356 -3.315 0.101351 0.0357089 0.00969194
243 1 0.0255576 0.150073 0.0250807 0.0329431 -3.31232 0.0162682 0.00256579 -0.0565053
248 1 0.0506087 0.17501 0.0250127 0.0336576 -3.29289 -0.120152 0.0814381 -0.00315295
242 1 0.024985 0.174882 3.53425e-05 0.0200842 -3.30663 0.09833 -0.0589348 0.0160757
252 1 0.0998985 0.175178 0.0254318 0.0208668 -3.29804 -0.00226068 -0.0607583 -0.0413584
327 1 0.0752607 0.200279 0.0249049 0.0339832 -3.30432 -0.0221317 -0.0172634 0.0711715
246 1 0.0752855 0.174968 0.000230054 0.0241275 -3.28751 -0.011366 0.0704686 -0.0710649
1846 1 0.0749374 0.175247 0.0502721 0.0219916 -3.31105 -0.0423848 -0.0959754 0.0330035
1929 1 0.099759 0.200088 0.0506793 0.052439 -3.29905 -0.00913735 0.0174792 -0.13299
255 1 0.17484 0.150252 0.0250587 0.036551 -3.30097 -0.0127668 -0.0695012 0.00300963
251 1 0.124643 0.150146 0.0248927 0.0265613 -3.30139 0.0391629 0.0454221 0.06469
256 1 0.149825 0.175134 0.0254776 0.0459236 -3.30933 -0.00260468 -0.00231509 -0.0852127
254 1 0.175321 0.174561 0.000130047 0.0351999 -3.31847 -0.0603172 0.0760642 -0.00460514
250 1 0.125092 0.174913 4.35425e-05 0.00844131 -3.31326 8.5927e-05 0.0577457 -0.000837019
335 1 0.175298 0.199955 0.0249081 0.022263 -3.30816 0.0362812 -0.0450024 0.0824002
1850 1 0.124721 0.175062 0.0504421 0.0200529 -3.30317 0.0502551 -0.0400764 -0.0641033
1854 1 0.175546 0.175134 0.0498364 0.0567339 -3.2978 -0.170499 -0.0752401 0.091793
259 1 0.225333 0.149747 0.0253278 0.0156026 -3.30448 0.0520378 0.0280364 -0.0421834
260 1 0.200158 0.174489 0.0251779 0.0343106 -3.28792 0.048419 0.0888548 -0.12046
1857 1 0.20006 0.149792 0.0500147 0.0211196 -3.30621 0.00955526 0.0325981 0.0607268
257 1 0.200153 0.149483 0.000103887 0.0293808 -3.3057 0.0977596 0.106062 -0.00499052
263 1 0.274755 0.149979 0.0251953 0.0248606 -3.30146 0.0818526 -0.0540312 0.0208185
264 1 0.250217 0.174861 0.0253609 0.0360436 -3.28612 -0.142949 -0.00714391 -0.118903
343 1 0.275139 0.19953 0.0247417 0.0347996 -3.2965 -0.000184884 0.0613955 0.134403
1862 1 0.27469 0.175 0.05009 0.0369198 -3.29417 0.1188 0.00396842 0.0186682
268 1 0.300293 0.174608 0.0249228 0.0394207 -3.30965 -0.0717213 -0.00802292 0.0328341
272 1 0.349921 0.175162 0.0252833 0.0408732 -3.31777 0.0734012 -0.0134304 -0.137269
1866 1 0.325088 0.1748 0.0499862 0.0137707 -3.29415 0.0750386 0.0530096 0.0822323
266 1 0.324617 0.174838 -0.000186184 0.0278922 -3.3035 0.0912972 -0.00619818 0.0471051
1945 1 0.300126 0.199723 0.0497769 0.015274 -3.30104 -0.0532712 0.0318592 0.00720546
273 1 0.3992 0.150271 -0.000173662 0.0478219 -3.3058 0.0729251 -0.0795448 -0.0419957
271 1 0.374647 0.150224 0.0251208 0.0168757 -3.29628 -0.00315964 -0.0294946 -0.0356662
1873 1 0.399933 0.15017 0.0502303 0.0139255 -3.31566 -0.00869142 -0.00450525 -0.0429401
276 1 0.399543 0.174828 0.0250499 0.0491422 -3.30272 0.0139074 0.108575 0.0186821
1870 1 0.374987 0.175302 0.050448 0.0403108 -3.30466 -0.0752206 -0.0856285 -0.0657449
1953 1 0.399892 0.199949 0.0501971 0.0255337 -3.29963 0.0378488 -0.0131432 -0.0093798
351 1 0.375172 0.200349 0.0246903 0.0516184 -3.3031 -0.0786679 -0.14925 0.0575882
280 1 0.450024 0.174668 0.0245305 0.0621673 -3.30569 -0.053976 0.111625 0.0725197
274 1 0.424504 0.175203 5.39116e-05 0.0329024 -3.29973 0.030125 -0.114986 -0.0310447
357 1 0.449764 0.199721 -9.99786e-05 0.031224 -3.30146 -0.0091115 0.110681 0.0120173
1957 1 0.449466 0.200216 0.0499737 0.0295128 -3.30571 0.0570239 -0.00251083 -0.0759164
1881 1 0.500033 0.150102 0.0502292 0.0149169 -3.29589 -0.114809 0.0504881 0.0302727
283 1 0.524302 0.150257 0.0254109 0.0827209 -3.29101 0.147832 -0.0434132 -0.139032
284 1 0.500118 0.17537 0.0252156 0.0206709 -3.3056 -0.0225274 0.00531587 -0.0541955
1878 1 0.474825 0.175169 0.0498893 0.00842706 -3.31117 -0.0268369 0.000909366 -0.0191206
1882 1 0.525344 0.174958 0.0504388 0.0525966 -3.30576 -0.105244 0.0368695 -0.00563325
287 1 0.5749 0.150171 0.0253435 0.0339912 -3.30956 -0.0279148 -0.0055811 -0.170248
288 1 0.54964 0.174588 0.0251933 0.0596626 -3.29814 0.00737826 0.0769188 -0.0707313
286 1 0.57472 0.17529 -3.41663e-05 0.0318515 -3.29705 -0.0181703 -0.12901 0.0496369
291 1 0.625245 0.149991 0.0250118 0.016299 -3.30875 -0.0550527 0.00198794 -0.0534
292 1 0.59992 0.175343 0.0248169 0.0293853 -3.30975 -0.0198404 -0.0811309 0.0121159
289 1 0.599877 0.150342 0.000103919 0.0244638 -3.30936 -0.0463318 -0.11766 0.0326838
290 1 0.624646 0.174725 -0.000481534 0.060804 -3.2875 0.101493 0.074206 0.154744
295 1 0.675329 0.150338 0.0247473 0.0390425 -3.30224 -0.0557085 -0.108491 0.0487295
296 1 0.64977 0.174978 0.0248473 0.0158469 -3.2994 -0.0245002 0.0614074 -0.0625849
293 1 0.650181 0.150168 -6.62284e-05 0.0136421 -3.30003 -0.0141063 -0.0674669 0.0368411
300 1 0.700272 0.174993 0.024943 0.0133461 -3.29795 -0.0249164 0.0292393 -0.0122835
294 1 0.674887 0.175085 5.30631e-05 0.0152948 -3.29418 0.142426 0.00773155 0.00811691
297 1 0.700023 0.150179 4.81965e-05 0.0222232 -3.30308 0.00293656 -0.0242837 -0.0930456
304 1 0.749801 0.174893 0.0245978 0.0323524 -3.29693 0.0617872 0.00550877 0.0983446
379 1 0.725015 0.199801 0.0248663 0.0173171 -3.29877 0.0539831 0.0833323 0.0836862
298 1 0.725213 0.174802 -7.6026e-05 0.0241743 -3.29242 -0.107553 0.119022 -0.11009
381 1 0.749971 0.200258 1.54719e-05 0.0173365 -3.30607 0.00145768 -0.0178305 -0.0655659
305 1 0.800247 0.150092 -0.000361866 0.0173021 -3.30334 -0.0780024 -0.00320701 0.0680383
303 1 0.774933 0.149881 0.0246421 0.0353695 -3.30747 0.0302652 0.0964283 -0.000537789
308 1 0.800089 0.175121 0.0248948 0.00754861 -3.30714 0.03425 -0.0539351 -0.0440221
302 1 0.775107 0.175422 -3.01461e-05 0.0334487 -3.30402 -0.000713843 -0.113844 -0.0369929
383 1 0.77511 0.200132 0.0249137 0.00682827 -3.30483 -0.0624386 -0.0292301 0.00759507
307 1 0.825304 0.150323 0.0246886 0.0281912 -3.31052 -0.0251632 0.00871132 0.0335285
312 1 0.850196 0.175545 0.0246935 0.0647773 -3.30203 -0.00920613 -0.17549 0.037362
391 1 0.875264 0.199917 0.0250485 0.0341913 -3.3001 0.0106237 0.122463 0.0148644
389 1 0.850158 0.200302 0.000499653 0.104645 -3.30772 -0.0869611 -0.0816705 -0.18182
1906 1 0.82506 0.174986 0.0500244 0.0187492 -3.30448 -0.0085034 -0.0292735 -0.0688792
1910 1 0.874847 0.174912 0.049833 0.0193191 -3.3086 0.0536433 0.069389 0.032742
310 1 0.875208 0.174947 -0.000356622 0.0288474 -3.3071 -0.0372636 0.0661592 0.0176606
313 1 0.899862 0.150052 -0.000234158 0.00750366 -3.28356 -0.0220494 0.006347 0.0145582
316 1 0.899911 0.17513 0.024772 0.0171033 -3.29556 0.0978959 0.0295316 0.0592333
314 1 0.924727 0.17509 -0.00029772 0.0179258 -3.2962 -0.0547255 0.0208268 0.0183767
395 1 0.92494 0.199961 0.0249365 0.0154553 -3.30254 -0.0221209 0.0105118 -0.0192077
1913 1 0.900336 0.15001 0.0500421 0.0343953 -3.28888 -0.0882571 0.0242306 0.00855799
1914 1 0.92519 0.174712 0.0503015 0.0336796 -3.30169 -0.0465369 0.150269 -0.0667096
393 1 0.900273 0.200241 -0.000353051 0.0333502 -3.31229 -0.106162 -0.0141513 0.0301373
244 1 1.00011 0.175013 0.0250696 0.0148696 -3.30319 0.0628 -0.0745406 0.0683341
320 1 0.949525 0.174956 0.0248501 0.034463 -3.31093 0.0708968 0.0381178 0.0607372
318 1 0.975308 0.174922 0.000259189 0.027762 -3.2936 -0.0937165 0.00539922 -0.0345547
1917 1 0.949504 0.149987 0.0501873 0.0323503 -3.29083 0.0354496 -0.0332091 -0.0582248
397 1 0.950233 0.199864 1.58737e-06 0.0152481 -3.30456 -0.0357043 0.0171421 0.0154919
323 1 0.0254568 0.200045 0.0251422 0.0263071 -3.29849 -0.0596178 -0.052124 -0.0442031
328 1 0.0499834 0.224864 0.025174 0.0249222 -3.30573 -0.00015738 0.109614 -0.00378801
322 1 0.0252945 0.224863 -0.000350486 0.033477 -3.31438 -0.0484539 0.00330297 0.0818617
403 1 0.0250621 0.249839 0.0248892 0.0264636 -3.3095 0.00842342 0.0201112 0.0622077
321 1 0.000388113 0.199557 0.000292182 0.0594248 -3.30258 -0.0530408 0.189355 -0.104465
332 1 0.100472 0.224971 0.0252312 0.0273038 -3.29618 -0.0904356 0.0572561 0.0109725
407 1 0.0752574 0.250445 0.0248559 0.0505278 -3.31317 -0.0185593 -0.151463 0.136447
2009 1 0.100558 0.249681 0.0502126 0.0448114 -3.30464 -0.0751861 0.0916533 -0.0198797
331 1 0.124572 0.199866 0.0252809 0.0399452 -3.30172 0.131497 0.0280183 0.0130571
1933 1 0.150103 0.199981 0.0501808 0.0129586 -3.31241 0.0785877 -0.0319651 -0.0231452
336 1 0.150216 0.224783 0.0251093 0.0107311 -3.31027 -0.0220197 0.00979663 0.0668165
415 1 0.175164 0.249773 0.0251512 0.0134214 -3.30273 -0.0133966 0.0211276 0.0721459
411 1 0.125115 0.249958 0.0252846 0.00655209 -3.30502 0.0339966 0.0047501 -0.0593567
1930 1 0.12517 0.224713 0.0504628 0.0172039 -3.30234 0.0201198 0.03366 -0.0433377
2013 1 0.150183 0.249913 0.0501948 0.00681084 -3.3032 -0.0281346 -0.0112973 -0.0536368
339 1 0.224801 0.199648 0.0246156 0.0585444 -3.29582 -0.003011 -0.015513 0.0944448
340 1 0.20039 0.224862 0.0252354 0.0147736 -3.29455 -0.0870409 -0.00283548 0.00125346
2017 1 0.200369 0.250151 0.0501696 0.014717 -3.29978 -0.0570502 -0.0308839 -0.0362566
1941 1 0.249761 0.199733 0.0497294 0.0354645 -3.30781 0.048763 0.0770037 0.0758067
344 1 0.249825 0.224601 0.0251041 0.0223519 -3.30213 0.0346525 -3.60737e-05 -0.0394357
423 1 0.274499 0.249625 0.0247975 0.0284857 -3.29821 0.00486218 0.0595238 0.0221175
1942 1 0.274899 0.224828 0.0498697 0.00664882 -3.30273 0.00868031 -0.0640853 -0.038607