ITEM: TIMESTEP
3750
ITEM: NUMBER OF ATOMS
32000
ITEM: BOX BOUNDS pp pp pp
1.5151713468031458e+00 7.9484828653191698e+01
-5.4728353147140751e-01 8.1547283531466093e+01
-5.4736168526989815e-01 8.1547361685264860e+01
ITEM: ATOMS id type xs ys zs c_csym c_peratom fx fy fz
8 1 0.0497169 0.0249701 0.0251111 0.0148422 -3.34655 -0.0383687 -0.00778471 0.0664989
83 1 0.0248726 0.0503271 0.0251388 0.0246895 -3.35986 -0.030434 -0.0810732 0.0603813
1602 1 0.0249392 0.0250057 0.0504198 0.0248091 -3.36317 -0.036898 0.0435282 -0.0998995
1685 1 0.0499073 0.0499617 0.0499639 0.0224535 -3.34752 -0.0118923 0.0539563 0.0209892
4 1 -3.71939e-05 0.0249697 0.0252807 0.0114181 -3.36261 0.0429983 0.0625365 0.0508954
1681 1 -0.000316539 0.050349 0.0503663 0.033817 -3.35962 0.0431051 -0.126468 -0.077772
1601 1 -0.00022543 0.000254262 0.0504176 0.0365032 -3.34434 0.00493656 -0.0752941 -0.123842
81 1 -0.000311585 0.0498896 0.000265144 0.0147218 -3.35703 0.074268 0.0402525 -0.0815425
12 1 0.0998678 0.0248413 0.0249646 0.0105123 -3.34512 -0.068406 0.0207897 0.0295764
87 1 0.0747251 0.0500733 0.0254314 0.0249198 -3.35797 0.0351047 0.00463643 -0.0571488
1606 1 0.0748037 0.025041 0.0500742 0.00959682 -3.35352 0.00297427 -0.0558586 -0.0386291
1689 1 0.0997818 0.0498765 0.0502333 0.00901076 -3.35149 -0.000172772 -0.00530476 -0.0330501
6 1 0.0747743 0.025249 0.000318578 0.0361271 -3.34935 0.0220881 -0.0754325 -0.0962679
16 1 0.149904 0.0249521 0.0247026 0.0287895 -3.35541 -0.0259501 -0.0567434 0.0385563
91 1 0.124722 0.0497859 0.0251502 0.0132007 -3.34511 0.00703926 -0.0213955 -0.00999516
1610 1 0.12438 0.0246153 0.0497263 0.035192 -3.35163 0.133993 0.067384 0.0801633
1693 1 0.149599 0.0494232 0.0501323 0.0474235 -3.35251 -0.0303309 0.082164 -0.0267854
1613 1 0.149804 -0.00034871 0.0496398 0.0241294 -3.35821 0.0182229 0.0409768 0.0583069
20 1 0.199676 0.024964 0.0248802 0.0116853 -3.35833 0.0325068 -0.0145204 0.0279656
95 1 0.174177 0.0500545 0.0248027 0.0429368 -3.34733 0.111145 -0.0917567 0.0183228
1614 1 0.174407 0.0248065 0.0501279 0.0498587 -3.35619 0.140731 -0.0241261 -0.0729679
1697 1 0.19957 0.0496523 0.0496962 0.0258253 -3.36305 0.0180202 0.0735706 0.0377182
1617 1 0.200141 -0.000186189 0.0497882 0.0186906 -3.36405 -0.0856507 0.0505107 -0.00390188
97 1 0.199933 0.0503695 0.000252722 0.0708502 -3.35569 -0.133957 -0.151565 -0.0943951
24 1 0.250168 0.0250495 0.0250364 0.0294148 -3.36035 -0.0283628 -0.0179481 -0.131614
99 1 0.22453 0.0497296 0.0250447 0.0335661 -3.34974 0.0781348 0.0394639 -0.0294229
1618 1 0.225053 0.0247095 0.0498756 0.0165258 -3.35428 -0.0455493 0.0101546 -0.0369069
1621 1 0.250495 -0.000224641 0.0500678 0.0583895 -3.34803 -0.122788 0.0122014 0.00192538
1701 1 0.249722 0.049778 0.0498675 0.0150551 -3.34901 -0.00954891 0.0534551 0.0290073
101 1 0.250255 0.0500497 0.000234782 0.0395921 -3.36319 -0.0697869 -0.110338 -0.0559536
21 1 0.250086 -1.62282e-05 -0.000337837 0.0227679 -3.35148 -0.0268193 -0.0173325 0.0781607
103 1 0.275477 0.0500414 0.0250386 0.0462751 -3.34042 -0.0835915 -0.0757053 -0.0523729
1622 1 0.2747 0.0251085 0.0497088 0.0357301 -3.35056 0.109715 -0.0515726 0.0903466
19 1 0.225469 -0.000164679 0.0246123 0.0452281 -3.35624 -0.0796737 0.0835889 0.0560777
23 1 0.27485 -9.26296e-05 0.0249039 0.0209498 -3.34508 0.047834 -0.00142553 -0.0314257
28 1 0.29974 0.0246945 0.0246513 0.067448 -3.35902 0.127893 0.0680317 0.130115
1705 1 0.29996 0.0500926 0.0497931 0.0110737 -3.35082 0.0435358 -0.105528 0.0267562
1625 1 0.299918 -0.000108841 0.0500666 0.00871442 -3.35972 -0.0522186 -0.00330947 -0.00625252
107 1 0.325303 0.0499781 0.0251925 0.0170737 -3.35727 -0.0965378 -0.0602373 -0.0253403
1626 1 0.324962 0.0249296 0.0500673 0.0114577 -3.35377 -0.0640354 0.059688 -0.0665174
27 1 0.325209 -0.000162937 0.0257488 0.0738015 -3.35306 -0.066027 0.00601982 -0.141563
32 1 0.350078 0.0249313 0.0251294 0.0122793 -3.35265 -0.00797594 0.0330082 -0.0215295
1709 1 0.350463 0.0501454 0.0500297 0.037024 -3.34969 -0.0444249 -0.0578277 0.0156833
1629 1 0.349903 0.000213904 0.0505604 0.0599671 -3.34657 0.0491777 -0.135627 -0.0894491
111 1 0.375231 0.0501998 0.0251684 0.0229845 -3.35342 -0.0553079 -0.0806468 -0.0168705
1630 1 0.375015 0.0246832 0.0498104 0.0461483 -3.35517 0.0415088 0.1505 0.0925253
30 1 0.374845 0.0247032 0.000129475 0.0212958 -3.36126 0.0411237 0.0696746 0.00678094
36 1 0.400143 0.0249834 0.0249137 0.0111302 -3.35301 -0.0230089 0.0463489 0.013534
1713 1 0.400078 0.0502336 0.0502149 0.0228448 -3.35928 0.000968984 -0.0649778 -0.0605614
115 1 0.425288 0.050084 0.0252666 0.0306625 -3.34916 -0.109454 0.0168506 -0.0373166
1634 1 0.424991 0.0248513 0.0500829 0.0149517 -3.35588 0.00567758 0.0512454 0.0139326
113 1 0.399974 0.0501365 0.000169571 0.024476 -3.35344 0.0268634 -0.118687 -0.0558189
34 1 0.424809 0.0249082 0.000123522 0.0152201 -3.3554 0.0478203 0.0337177 -0.0322968
40 1 0.449879 0.0249978 0.0250321 0.00997814 -3.35687 0.0667149 -0.000421375 -0.0250667
1717 1 0.449996 0.0501047 0.0498565 0.0161252 -3.35219 0.0190473 -0.00799113 0.0975468
38 1 0.47509 0.0249917 -8.21246e-05 0.0092965 -3.35401 -0.0964919 -0.0342501 0.0229565
119 1 0.475201 0.0501188 0.0251933 0.0158874 -3.34944 -0.0774441 -0.0346475 -0.0376096
1638 1 0.474814 0.025114 0.0501755 0.0180461 -3.35509 0.0603287 0.0250577 -0.0424718
1721 1 0.500294 0.049875 0.0498988 0.0158002 -3.34654 -0.0744989 0.0430546 -0.00192848
121 1 0.499674 0.0498515 0.000176223 0.0383788 -3.35033 0.118883 0.101852 -0.0704603
39 1 0.475011 0.000119743 0.0250272 0.014306 -3.35643 -0.0722006 -0.0131921 0.0188363
1641 1 0.499927 -0.000119505 0.049766 0.018449 -3.34734 -0.0363916 0.0600334 0.0567591
117 1 0.450045 0.0500673 0.000327541 0.0202471 -3.36037 0.0334984 -0.0401364 -0.0576928
44 1 0.499906 0.0251066 0.0248656 0.0118288 -3.34931 -0.00566942 0.0100349 0.0893798
123 1 0.525411 0.0501838 0.0249436 0.0334475 -3.35265 -0.0915494 0.0107623 0.00377864
1642 1 0.524751 0.0250774 0.0501017 0.0234461 -3.3485 0.0699767 -0.021347 -0.0956172
48 1 0.549902 0.0251979 0.0250411 0.0118264 -3.3556 0.0413343 -0.0501187 0.00857609
1725 1 0.550061 0.0502442 0.0499403 0.010305 -3.3504 0.0436865 -0.0896365 -0.00867492
42 1 0.524733 0.0251664 0.000205484 0.0200749 -3.35405 0.0588363 -0.0175832 -0.099812
127 1 0.574788 0.0498818 0.0250849 0.0240313 -3.35781 0.0414282 0.062322 0.00139024
1646 1 0.575397 0.0248149 0.0501545 0.0384006 -3.35323 -0.0787615 0.11196 -0.00932825
52 1 0.600023 0.0249396 0.0249691 0.0165764 -3.3495 0.0448971 0.0369839 -0.00266829
1729 1 0.600357 0.0498356 0.0497422 0.0255085 -3.35914 -0.0601131 0.0619234 0.00969851
46 1 0.574999 0.0248015 -5.75071e-05 0.0215831 -3.35742 -0.0179459 0.0867089 -0.000746476
129 1 0.599745 0.0501225 0.000387093 0.0474025 -3.35693 0.0140507 -0.0531296 -0.0863998
131 1 0.62534 0.050198 0.0245476 0.052553 -3.35048 -0.0841165 -0.0601779 0.131787
1650 1 0.62511 0.0248578 0.0497309 0.0128362 -3.35519 -0.0158689 -0.00317963 -0.00123324
51 1 0.624833 -0.000393972 0.0247396 0.0465783 -3.34911 0.121169 0.0737098 0.116619
56 1 0.649965 0.0249101 0.024787 0.0181255 -3.3522 0.0735157 -0.0190678 0.0917528
1733 1 0.650043 0.0499577 0.0498793 0.0068037 -3.36122 0.0231248 -0.0113599 0.0191958
50 1 0.625344 0.0247701 0.000304077 0.0395459 -3.35544 -0.0547744 0.0607269 -0.10734
133 1 0.650276 0.0504543 0.000171299 0.0587018 -3.33967 -0.0232572 -0.148889 -0.0461734
135 1 0.675254 0.0497663 0.0250782 0.0278757 -3.35872 -0.0372827 0.041468 -0.00680503
1654 1 0.675056 0.0248066 0.0501075 0.0153899 -3.34938 -0.0961651 0.0280406 -0.0921563
60 1 0.700193 0.0251748 0.0250078 0.0248395 -3.36031 -0.0601162 -0.112378 -0.0805382
1737 1 0.700134 0.0499578 0.0500144 0.00875835 -3.34085 -0.0457356 0.0673122 -0.0360286
137 1 0.700452 0.0503746 -0.000211416 0.0547467 -3.35457 -0.086607 -0.0870503 0.0697814
139 1 0.725369 0.0499658 0.0249918 0.0120676 -3.36016 0.0243391 0.0458529 0.0125503
1658 1 0.724674 0.0249929 0.0498471 0.0279468 -3.35335 0.149346 -0.00750154 0.023967
59 1 0.725272 -0.00057812 0.0250779 0.0427287 -3.34858 -0.0570665 0.12977 -0.0413127
64 1 0.750366 0.0248499 0.0252035 0.0222085 -3.35638 -0.0679883 0.00757349 0.0343643
143 1 0.774841 0.0498797 0.0249045 0.0325346 -3.35095 0.0879502 0.0463626 0.0581186
1662 1 0.775479 0.0247452 0.0500806 0.04468 -3.34402 -0.112774 0.0526938 -0.0660837
1741 1 0.750407 0.0502674 0.0501352 0.0334373 -3.36585 -0.0663092 -0.0728135 -0.011006
63 1 0.775204 -6.18874e-05 0.0251517 0.011405 -3.35947 -0.00592411 -0.0473949 -0.0407957
61 1 0.750199 -9.31648e-05 0.000318263 0.0197863 -3.35353 0.0169909 0.0232521 -0.0488271
141 1 0.750498 0.0499721 -5.9516e-05 0.0185598 -3.34526 -0.116978 0.033262 0.0133247
62 1 0.775026 0.0253646 -1.15789e-05 0.0421973 -3.34842 0.0664954 -0.175256 0.00701219
68 1 0.800108 0.024842 0.0249395 0.0143686 -3.35233 -0.0161384 0.101703 0.0118271
147 1 0.82507 0.0503479 0.0252088 0.0335085 -3.35763 -0.00117517 -0.117809 -0.0540558
1666 1 0.825191 0.0251235 0.0498307 0.0111751 -3.36226 0.00866393 0.0531157 0.0870276
1745 1 0.799897 0.0499917 0.0499262 0.0141265 -3.35337 0.0364259 0.0274599 0.0213842
1665 1 0.800363 -0.000192102 0.0498925 0.0129097 -3.34316 -0.00129871 0.0502343 0.00490778
67 1 0.825215 0.000376952 0.0250468 0.0315392 -3.34042 0.00474675 -0.142361 0.0153101
145 1 0.800127 0.0498946 -0.000144989 0.00717723 -3.35922 0.0560303 0.0236223 0.0437395
71 1 0.875139 -0.000198398 0.0251084 0.0155154 -3.34671 -0.0164845 0.0655518 -0.0247416
72 1 0.850212 0.0249802 0.0251044 0.00989566 -3.35507 0.0324624 0.0851009 0.0222822
151 1 0.875155 0.0501188 0.0251518 0.0109885 -3.35143 -0.0293122 -0.0454772 -0.034648
1670 1 0.875058 0.0252888 0.0505448 0.0370831 -3.3581 -0.0232847 -0.043005 -0.0848711
1749 1 0.850378 0.0504766 0.0501136 0.0418231 -3.35638 -0.0991373 -0.133837 0.026748
1669 1 0.850401 7.46431e-05 0.0496435 0.0418407 -3.35465 -0.0430438 -0.0139393 0.149581
76 1 0.899709 0.0250138 0.0254426 0.0148841 -3.35485 0.0414042 0.00102657 -0.0457074
155 1 0.924759 0.0501478 0.0252669 0.0207373 -3.35263 0.0844642 -0.0790055 -0.021858
1674 1 0.924904 0.02482 0.0500805 0.0212748 -3.36681 0.0964913 0.0168176 0.0204997
1753 1 0.90022 0.0500421 0.0503085 0.018529 -3.34052 -0.04735 -0.0257854 -0.0584249
153 1 0.899977 0.0501166 8.6264e-05 0.0116418 -3.34919 0.014744 -0.112532 -0.0172351
1673 1 0.899592 -0.000215486 0.0503849 0.0484378 -3.34951 0.0965424 0.105457 -0.0421018
73 1 0.89962 -8.52072e-05 0.000420183 0.0284466 -3.34782 0.0939544 0.00680403 -0.0567729
75 1 0.924669 5.22598e-06 0.0253682 0.014452 -3.36498 0.054818 -0.0338945 0.0123539
78 1 0.974999 0.0249729 0.000403745 0.0186011 -3.34896 -0.0725138 0.0105951 -0.0814913
80 1 0.949879 0.0250599 0.0250759 0.00841684 -3.3519 -0.0492857 0.0295007 0.0212625
159 1 0.974911 0.0504412 0.0249873 0.0263613 -3.34408 0.00702409 -0.122092 0.0772557
1678 1 0.974522 0.0251249 0.0498568 0.0466311 -3.34632 0.105997 0.0679475 0.0279653
1757 1 0.950174 0.0503559 0.0499009 0.0396608 -3.36377 -0.123326 -0.0787423 0.0514951
79 1 0.974864 0.000269062 0.0251047 0.0242582 -3.3487 0.0182947 -0.117545 0.0127806
88 1 0.0500543 0.0752633 0.0249856 0.0435064 -3.35269 0.0246065 -0.113847 0.0655229
163 1 0.0250737 0.0993248 0.0250568 0.0531355 -3.35522 -0.01605 0.167222 0.0461828
1682 1 0.0249521 0.0748129 0.05039 0.016249 -3.352 0.0155837 0.0435611 -0.075878
1765 1 0.0501442 0.0996714 0.0505042 0.0299528 -3.34885 -0.0653724 0.0597834 -0.0837029
1761 1 0.000170004 0.0997733 0.0503451 0.0234222 -3.35801 -0.0342087 0.0380166 -0.0505476
161 1 -0.000112708 0.0999385 -2.6879e-05 0.0176493 -3.36178 -0.0529509 0.0213564 0.0391828
92 1 0.0996657 0.074931 0.0251194 0.0117128 -3.34885 -0.0213228 -0.0230594 -0.0296728
167 1 0.0749215 0.0998201 0.0251531 0.00849267 -3.34294 0.00368493 0.024564 -0.0119437
1686 1 0.0750607 0.0749081 0.0504565 0.0246728 -3.35134 -0.0218426 -0.0175964 -0.0867545
1769 1 0.0998953 0.0998787 0.0497509 0.0283211 -3.35231 0.0314803 0.00494767 0.0879429
169 1 0.0994749 0.100166 3.39341e-05 0.0304002 -3.34692 0.102945 -0.0663041 -0.00153021
86 1 0.0750778 0.0749451 -0.000130827 0.0331366 -3.34758 -0.0210749 -0.0756937 0.0920837
96 1 0.149571 0.0746303 0.0250185 0.0179544 -3.34455 0.0324965 0.105814 0.00275783
171 1 0.124755 0.0999071 0.0249953 0.00982981 -3.35362 0.00416267 0.0246392 -0.045761
173 1 0.149735 0.0997242 -5.03372e-05 0.0108132 -3.35744 -0.0350318 0.0356208 0.00432576
1690 1 0.12462 0.074674 0.0495548 0.0455817 -3.35118 0.0184815 0.0380067 0.154948
1773 1 0.149513 0.0998727 0.0497431 0.022988 -3.36364 0.0932785 -0.00842358 0.0491102
100 1 0.199255 0.0748965 0.0247273 0.0357526 -3.34851 0.105745 0.035588 0.0971908
175 1 0.174764 0.100121 0.0247181 0.0194025 -3.35391 -0.041313 -0.0174375 0.0946584
1694 1 0.174674 0.0748914 0.0498015 0.00932626 -3.35977 -0.019356 0.021629 -0.00760802
1777 1 0.199844 0.099983 0.0497632 0.00856282 -3.34952 -0.0427646 -0.0413282 -0.00121632
94 1 0.174632 0.0750955 0.000104496 0.0179602 -3.35038 -0.0216675 -0.0407648 -0.120411
104 1 0.250069 0.0743547 0.0247344 0.0702338 -3.35684 -0.0261708 0.149874 0.042799
179 1 0.224728 0.0997957 0.025138 0.0206374 -3.3534 -0.0309837 0.0146277 -0.103507
1698 1 0.224889 0.0750711 0.0494662 0.0371165 -3.3661 -0.0331815 -0.0786504 0.117631
1781 1 0.249975 0.0999517 0.0495401 0.0382738 -3.35431 0.0233692 -0.0936227 0.120636
183 1 0.275217 0.0998243 0.0250972 0.0239177 -3.35595 -0.0841904 0.0109404 -0.0582963
1702 1 0.274852 0.0746169 0.0498944 0.0221966 -3.35244 -0.0517194 0.115514 0.0273051
181 1 0.249776 0.100071 0.000404594 0.0313116 -3.35928 0.0814305 -0.0621797 -0.0115183
108 1 0.300104 0.0750836 0.0250129 0.0121794 -3.34841 0.0492288 -0.0305917 0.00156651
1785 1 0.300004 0.0997816 0.0501264 0.0181093 -3.35006 -0.00552189 0.0229628 -0.0599954
187 1 0.324982 0.0999311 0.0248082 0.0127901 -3.35355 0.0366255 0.0170792 0.0637625
1706 1 0.325166 0.0748119 0.0500327 0.0180799 -3.3507 0.015038 0.084709 -0.0118835
112 1 0.350019 0.0749474 0.0253383 0.0302177 -3.35181 0.0615919 0.0512691 -0.0790847
1789 1 0.350189 0.100297 0.0497408 0.0284755 -3.35823 -0.0398141 -0.0516048 0.00434767
189 1 0.350022 0.0998719 -2.97745e-05 0.0104287 -3.35622 0.00203408 0.00517149 -0.0619297
191 1 0.374858 0.0999802 0.0244459 0.0462779 -3.35382 0.0244502 0.0095044 0.129694
1710 1 0.375049 0.0753869 0.0504246 0.0608983 -3.34892 0.0146368 -0.0187708 -0.179654
110 1 0.375138 0.0749678 -0.000292885 0.0212947 -3.34325 -0.0735897 0.00621252 0.0325627
116 1 0.399647 0.0749097 0.0245884 0.0641911 -3.35684 0.138294 0.071387 0.168275
1793 1 0.400201 0.100292 0.0494703 0.0527043 -3.35571 -0.0467061 -0.127042 0.0583949
193 1 0.400056 0.099985 -1.71644e-05 0.00843988 -3.35063 0.025936 -0.0195634 -0.064893
195 1 0.425431 0.0998818 0.0246695 0.0356819 -3.36148 -0.0706801 0.0111755 0.0342797
1714 1 0.425085 0.0752159 0.0500404 0.0118402 -3.36181 -0.0402393 0.00255067 -0.0353944
114 1 0.425024 0.0747073 -8.35789e-05 0.0211294 -3.35832 0.01325 0.0524977 0.00834767
120 1 0.450222 0.0752794 0.0250577 0.0195745 -3.3505 -0.00151629 -0.0756526 -0.0246773
1797 1 0.450478 0.0999646 0.0498745 0.0283531 -3.34728 -0.0433415 -0.00400803 0.00118137
199 1 0.474789 0.100327 0.0245715 0.0388169 -3.35405 0.104097 -0.0220271 0.066376
1718 1 0.475519 0.0748941 0.0498067 0.0377726 -3.35652 -0.0431885 0.0659322 0.0481921
1801 1 0.500098 0.100475 0.0497361 0.0443851 -3.36501 0.0378192 -0.111176 -0.0328762
124 1 0.500087 0.0750773 0.0249163 0.00605427 -3.35809 0.038283 0.0517613 0.0152192
203 1 0.525516 0.100133 0.0248562 0.0225177 -3.35525 -0.091379 0.0144165 0.0724701
1722 1 0.525126 0.0751086 0.0500114 0.00855461 -3.35674 -0.0459163 0.0858344 -0.0210681
122 1 0.524976 0.0751183 2.38013e-05 0.0109784 -3.35944 0.00890938 -0.06185 -0.0313955
128 1 0.550121 0.0755196 0.0251646 0.0380304 -3.34398 0.0144578 -0.112741 -0.0545843
1805 1 0.550413 0.10017 0.050281 0.0156294 -3.36217 -0.0121651 -0.0190721 -0.0176081
205 1 0.549997 0.100058 -0.000119473 0.0196743 -3.35213 0.11942 0.0154502 0.0155394
207 1 0.575259 0.0999022 0.0249161 0.021806 -3.35227 -0.0497837 0.0824642 0.0527796
1726 1 0.575184 0.0751078 0.0499569 0.00913641 -3.35363 0.0229861 -0.0449459 0.00649776
132 1 0.600109 0.0751574 0.0248553 0.0181606 -3.35227 -0.00185897 -0.0682116 0.0793157
1809 1 0.59982 0.0999473 0.0503151 0.0335634 -3.35688 0.0856271 0.0293087 -0.0449797
126 1 0.57492 0.0750797 -0.000114523 0.0150435 -3.35609 -0.00188992 0.00261551 0.0310147
211 1 0.625148 0.100031 0.0251629 0.00495743 -3.36242 -0.00774523 0.0361344 0.012935
1730 1 0.625162 0.0750425 0.0500243 0.0066535 -3.35558 -0.054605 -0.00473712 0.0159953
136 1 0.649947 0.0750681 0.0250881 0.013503 -3.34621 0.0602597 0.00467527 0.0146576
1813 1 0.650294 0.0998644 0.0501733 0.0128518 -3.34782 -0.0687363 0.0611621 0.00708166
213 1 0.650037 0.0999041 1.4642e-05 0.00839228 -3.35174 0.0500337 0.0520332 0.0614369
215 1 0.674959 0.100142 0.0250729 0.013365 -3.35439 0.0734305 -0.0541823 -0.0237045
1734 1 0.675172 0.0751834 0.0497858 0.0182274 -3.35411 -0.00915686 -0.0854077 0.0608053
140 1 0.700079 0.0748335 0.0250872 0.0166547 -3.36036 0.0633574 0.0678229 -0.0284898
1817 1 0.700194 0.10011 0.0502061 0.0157249 -3.35346 0.00015231 -0.0181735 -0.0952498
134 1 0.675047 0.074984 0.000351599 0.0202996 -3.35287 0.0838642 0.0288269 -0.0571331
217 1 0.700237 0.100075 0.000264066 0.0132448 -3.35542 -0.0243937 -0.0636886 -0.0774238
219 1 0.724944 0.10024 0.0251195 0.0250267 -3.34219 -0.0136417 -0.137801 0.034092
1738 1 0.725214 0.0750074 0.0499334 0.0113671 -3.36026 -0.0323808 -0.00211872 0.0241817
144 1 0.75019 0.0752797 0.02502 0.0169791 -3.35404 0.00864393 -0.0597501 -0.00549296
223 1 0.775445 0.100058 0.0253361 0.0426104 -3.35417 -0.118168 0.00898411 -0.0623359
1742 1 0.77537 0.0753144 0.0498679 0.0368854 -3.35699 -0.0304883 -0.0414945 0.0872432
1821 1 0.749949 0.0999325 0.0500247 0.0198784 -3.35033 0.0367288 0.0327944 0.012083
138 1 0.725496 0.0751256 -0.00010815 0.0199452 -3.35289 -0.0821878 -0.0238847 0.0552207
221 1 0.749936 0.0998264 0.000194593 0.0216723 -3.35419 0.095871 0.0658145 -0.0284026
148 1 0.800018 0.0748632 0.0249952 0.0175137 -3.35073 0.0430529 0.034742 -0.025308
227 1 0.82533 0.100126 0.0247177 0.0372359 -3.35023 -0.0431724 -0.0747196 0.0449101
1746 1 0.82483 0.075102 0.0500906 0.0271014 -3.35075 0.00629613 0.00219501 0.0159731
1825 1 0.800562 0.100149 0.0501887 0.0451339 -3.35357 -0.0939904 -0.0288778 -0.000383511
152 1 0.850001 0.0749545 0.0249802 0.0147044 -3.35163 0.0471284 0.0497057 -0.0491902
231 1 0.875104 0.0997887 0.0246571 0.0268298 -3.36562 -0.0112884 0.0240135 0.109693
1750 1 0.875356 0.0748331 0.0497827 0.029289 -3.34665 -0.0330347 0.0824337 0.0288869
1829 1 0.849848 0.099967 0.0499077 0.015509 -3.35574 0.0792267 0.0454033 -0.0452419
150 1 0.875153 0.0748429 -0.000376788 0.027499 -3.35548 -0.0862351 0.0814148 0.0991979
156 1 0.900227 0.0746583 0.0248211 0.0324908 -3.34893 -0.0529404 0.167023 0.0532097
235 1 0.925006 0.0999075 0.024945 0.0232191 -3.36125 -0.122253 0.0420602 0.0421045
1754 1 0.924872 0.0750769 0.0503342 0.0209098 -3.3529 0.0490971 0.00436551 -0.0985948
1833 1 0.899744 0.0998358 0.0502724 0.0315074 -3.35041 0.0448652 0.0186857 -0.170466
233 1 0.900089 0.100179 -0.000224668 0.0185609 -3.35203 -0.0456148 -0.0506409 0.0457425
84 1 0.999709 0.0749977 0.0251421 0.0127006 -3.34771 0.0411628 0.0485971 0.00383193
160 1 0.949865 0.0751845 0.0248156 0.0185588 -3.35179 -0.0289649 0.0346522 0.0907979
239 1 0.974857 0.100325 0.0251564 0.0183689 -3.36244 -0.0183459 -0.0503439 -0.0378266
1758 1 0.9747 0.0753825 0.0501607 0.0245471 -3.35285 -0.00423929 -0.00194965 -0.014072
1837 1 0.94952 0.100479 0.0498744 0.0429247 -3.34792 0.0764334 -0.144547 0.0582313
162 1 0.0248866 0.124988 0.000275033 0.0116011 -3.36291 0.0177562 -0.00201127 0.00859426
168 1 0.0503094 0.124647 0.0253701 0.0496417 -3.35906 -0.115164 0.0631957 -0.126218
243 1 0.0253481 0.150033 0.0251907 0.0293138 -3.34831 -0.0388211 -0.0420406 -0.0589449
1762 1 0.0253641 0.124857 0.0502232 0.0180658 -3.35782 -0.0221972 -0.0193268 -0.00952264
1845 1 0.0497541 0.150448 0.0498172 0.0423589 -3.35169 0.0930004 -0.109325 0.0890491
164 1 0.000389584 0.124749 0.0252765 0.0386143 -3.35787 -0.0542597 0.0264493 -0.0121921
172 1 0.0998603 0.125045 0.0250996 0.0175958 -3.35131 -0.0592392 -0.0424168 -0.00646475
247 1 0.0747791 0.150226 0.0247427 0.025537 -3.36242 0.0134466 -0.0506833 0.0352207
1766 1 0.0747151 0.124921 0.0499852 0.021885 -3.35474 0.0238106 0.0683295 0.046022
1849 1 0.0999444 0.149865 0.0497413 0.0242259 -3.35325 -0.0564155 0.0456367 0.0460174
166 1 0.0748585 0.124779 -0.000153709 0.0134974 -3.35595 -0.0785673 0.0862458 0.0160331
170 1 0.124682 0.124905 0.000104673 0.0119396 -3.35526 0.0510096 -0.0248167 -0.0551957
176 1 0.149883 0.125059 0.0250402 0.0152601 -3.35599 -0.0268189 -0.0473385 0.0172134
251 1 0.124649 0.149619 0.0253065 0.0338114 -3.34627 0.0650398 0.0847955 -0.0651189
1770 1 0.125021 0.124632 0.0503841 0.049656 -3.34335 -0.00945152 0.0510914 -0.10828
1853 1 0.149699 0.149789 0.0502209 0.0105702 -3.35941 -0.0126259 -0.0103617 0.0150256
253 1 0.149536 0.149841 -1.5839e-05 0.01158 -3.35771 0.0525664 0.00330136 0.00632609
180 1 0.199731 0.125247 0.025122 0.0160263 -3.35546 -0.0120526 -0.0515454 -0.0647384
255 1 0.174685 0.150055 0.0252828 0.0179382 -3.35235 0.0105698 -0.0439618 -0.118873
1774 1 0.17505 0.124846 0.0501713 0.022716 -3.35637 -0.122827 -0.00409749 -0.0212326
1857 1 0.199724 0.150006 0.050015 0.0119021 -3.34759 0.0302494 -0.0291162 0.0647212
184 1 0.249641 0.124902 0.0253182 0.0277838 -3.35676 0.0683969 0.0645454 -0.105067
259 1 0.224647 0.150238 0.0251321 0.0150879 -3.35976 0.0622132 -0.0288594 -0.012169
1778 1 0.224968 0.124835 0.0498185 0.0197473 -3.3393 -0.0670525 0.0719155 0.0362891
1861 1 0.249741 0.149951 0.0504222 0.0247665 -3.35634 0.00106535 0.00907485 -0.099723
263 1 0.274732 0.149786 0.025303 0.0243696 -3.36055 -0.0135967 0.0165861 -0.105272
1782 1 0.275136 0.124742 0.0499513 0.0278851 -3.34872 -0.0929093 0.0277512 0.0067777
182 1 0.274681 0.125198 -2.84325e-05 0.0318928 -3.36004 0.0287132 -0.0663627 0.0330311
178 1 0.224551 0.125227 0.000314277 0.0194224 -3.35213 0.00379165 -0.0447135 -0.023331
261 1 0.249709 0.150032 -0.000300605 0.037471 -3.35182 0.0350842 -0.0148661 0.123311
188 1 0.300003 0.124772 0.0249108 0.0132985 -3.35785 0.0254703 0.0987253 -0.0223739
1865 1 0.29958 0.149836 0.0498736 0.016867 -3.34656 0.10608 -0.0142127 -0.0105633
267 1 0.325239 0.150133 0.024886 0.0191038 -3.35418 -0.0992022 -0.0759725 -0.0204829
1786 1 0.324968 0.124964 0.0499235 0.00761546 -3.35844 -0.0246832 0.0244525 -0.0616227
265 1 0.299816 0.150226 -5.95216e-06 0.0226627 -3.37129 0.0730133 -0.04891 -0.0030347
192 1 0.350119 0.125212 0.0246608 0.015148 -3.35411 0.00538925 -0.0534671 0.0587603
1869 1 0.349951 0.149828 0.0497938 0.0112057 -3.35598 0.00498117 0.0442408 0.0238146
271 1 0.374963 0.150056 0.0247875 0.00961655 -3.35363 -0.000839086 -0.0458558 1.0694e-06
1790 1 0.375367 0.124975 0.0498981 0.022845 -3.35329 -0.0804816 0.0245479 -0.0377501
190 1 0.37527 0.125075 -0.000243241 0.0124228 -3.35724 -0.0498009 -0.0346601 0.0146269
269 1 0.349985 0.150169 -0.000347073 0.0179221 -3.34292 0.0638935 -0.0258774 0.0668176
196 1 0.400011 0.124904 0.0248457 0.00686827 -3.34722 0.0132466 -0.00135276 0.0176962
1873 1 0.400073 0.149956 0.0497959 0.0135051 -3.35625 0.0509203 -0.0153965 0.083595
275 1 0.424999 0.149656 0.0248424 0.025252 -3.35162 0.00387051 0.0651935 0.0536554
1794 1 0.425239 0.124659 0.0499708 0.040088 -3.34938 -0.0203726 0.0989563 -0.0679403
200 1 0.450103 0.125197 0.024515 0.0244289 -3.35383 -0.0271244 -0.0362568 0.0439278
1877 1 0.44967 0.15016 0.0496393 0.0455689 -3.35175 0.0825879 -0.0428195 0.0898569
279 1 0.475063 0.150165 0.0251566 0.0290626 -3.34818 -0.0736664 -0.0441026 -0.0836438
1798 1 0.474821 0.12509 0.0497727 0.0347359 -3.35306 0.108671 0.0307496 -0.0686072
198 1 0.475082 0.125333 -0.000292215 0.0219269 -3.35734 -0.0364394 -0.0753178 0.0083555
204 1 0.500497 0.125091 0.0245318 0.0537621 -3.3513 -0.113712 -0.0672186 0.124645
283 1 0.525118 0.149816 0.0249286 0.0215825 -3.3585 0.104109 0.0658419 -0.040133
1802 1 0.525414 0.124945 0.0500848 0.0202484 -3.35433 -0.0208787 0.0182657 -0.0521395
1881 1 0.499975 0.149851 0.0494798 0.037258 -3.35859 0.0597755 0.0308228 0.149241
208 1 0.550523 0.125193 0.0251243 0.0243121 -3.35666 -0.0720636 -0.0603832 -0.0827212
1885 1 0.550385 0.150018 0.0497923 0.00973118 -3.34624 -0.0610648 0.026015 -0.0197983
202 1 0.525185 0.124822 -0.000278053 0.0285308 -3.35118 0.0929034 0.129975 0.0854133
281 1 0.499835 0.150144 0.000443121 0.0587975 -3.348 0.0865756 0.0236308 -0.151773
287 1 0.575271 0.149851 0.0246413 0.0227571 -3.33992 -0.023534 0.084 0.111021
1806 1 0.575318 0.125359 0.0500598 0.0181079 -3.34584 -0.00740368 -0.094874 -0.0394682
212 1 0.600194 0.125115 0.0250654 0.0113737 -3.35074 0.0287372 -0.0864085 0.03547
1889 1 0.600268 0.150132 0.0498896 0.0176442 -3.35151 -0.0361129 0.00309256 0.0428713
291 1 0.625125 0.149828 0.0248203 0.0185459 -3.35198 0.0839999 0.0447266 0.105468
1810 1 0.625124 0.124784 0.0502932 0.0159975 -3.36884 0.0337014 0.0324531 -0.0141109
216 1 0.650304 0.125044 0.0251743 0.0120743 -3.35094 -0.102129 -0.0318271 -0.0242927
293 1 0.650244 0.149808 0.000141999 0.0103222 -3.35223 0.0232542 0.0848111 0.00687428
1893 1 0.650369 0.149791 0.0502141 0.013265 -3.35751 -0.102133 0.020141 -0.0331483
210 1 0.625407 0.124967 -6.08168e-05 0.016864 -3.35373 -0.0864333 -0.0332602 0.0635724
214 1 0.67528 0.124912 0.000100744 0.00490938 -3.35522 -0.000890765 -0.00751792 -0.0430906
295 1 0.675205 0.149858 0.0249629 0.00809929 -3.35415 0.0275651 0.0729572 0.000873183
1814 1 0.675107 0.124919 0.0496683 0.0434174 -3.35083 0.074455 0.030823 0.12206
220 1 0.7005 0.124999 0.0248795 0.0305901 -3.3562 -0.0490364 0.0688712 0.0992581
1897 1 0.700361 0.150034 0.0500632 0.0114192 -3.36155 -0.0492741 -0.0156219 -0.00384929
299 1 0.725448 0.150266 0.0252756 0.036537 -3.35801 -0.0784659 -0.015408 -0.00097548
1818 1 0.725169 0.125094 0.0506105 0.041367 -3.34722 -0.0336701 0.00973832 -0.109696
224 1 0.749464 0.124662 0.0253514 0.0797823 -3.34887 0.159784 0.0840405 -0.00784911
303 1 0.774549 0.149844 0.0251077 0.0331933 -3.35891 0.0820898 -0.042239 0.038109
1822 1 0.775165 0.125114 0.0501115 0.0236396 -3.36235 -0.0418435 -0.0554878 -0.0532636
1901 1 0.750143 0.149971 0.0504901 0.0269726 -3.35571 -0.0495052 0.00937368 -0.070321
218 1 0.72512 0.124945 0.000122182 0.0103825 -3.34564 0.0111917 0.0450898 -0.0825991
301 1 0.749713 0.149855 0.000197448 0.0271699 -3.3473 0.00978543 0.0505965 -0.053273
228 1 0.800082 0.12471 0.0248505 0.03514 -3.35392 -0.018329 0.144759 0.0457869
307 1 0.824985 0.150092 0.0252168 0.00893981 -3.35163 -0.0208696 -0.032057 -0.0080966
1826 1 0.824986 0.125037 0.0499847 0.0118829 -3.35102 0.0328813 0.0317644 0.0243879
1905 1 0.800283 0.149891 0.0499951 0.0253481 -3.35025 -0.0836952 0.000738329 -0.0525754
232 1 0.849832 0.125145 0.0251438 0.0164011 -3.35683 0.120165 -0.0131147 0.0015066
311 1 0.874772 0.150427 0.0251097 0.0289405 -3.35551 -0.0173898 -0.139003 -0.018733
1830 1 0.875365 0.125099 0.0502062 0.0427356 -3.35269 -0.157988 -0.0407235 -0.103232
1909 1 0.85016 0.149983 0.0502518 0.0198268 -3.35914 -0.0567161 0.0158541 -0.04857
309 1 0.849422 0.149923 0.000307521 0.0337236 -3.35465 0.0877529 -0.01212 -0.108511
236 1 0.899661 0.125038 0.0250355 0.0180742 -3.36119 0.0906153 -0.000179502 0.0243722
313 1 0.899887 0.150166 -9.1486e-05 0.0127641 -3.35626 0.0136092 0.0138117 0.0449175
315 1 0.925029 0.150072 0.0250348 0.0297918 -3.3565 -0.146459 0.0455328 -0.0312052
1834 1 0.924922 0.124841 0.0501806 0.0343961 -3.34446 -0.107735 0.108071 -0.0899773
1913 1 0.899858 0.149966 0.0499833 0.0110173 -3.35421 0.0310496 0.0509548 -0.0265408
1841 1 1.00011 0.149794 0.04979 0.0267085 -3.3541 0.029954 0.0195231 0.0849774
240 1 0.949583 0.125564 0.0252942 0.0512756 -3.34508 0.064428 -0.0866407 -0.0877103
319 1 0.97496 0.150265 0.0254137 0.0380371 -3.35145 -0.029193 -0.0629349 -0.112205
1838 1 0.974835 0.124841 0.0500388 0.0177897 -3.35458 0.0380553 0.0576725 -0.00245169
1917 1 0.949785 0.150608 0.0497928 0.0521033 -3.35171 0.0153574 -0.061495 0.0710101
317 1 0.949624 0.150229 -0.00026445 0.0385558 -3.35495 0.0914761 -0.00485603 0.0382349
248 1 0.0499506 0.175341 0.024889 0.019011 -3.3451 0.0356344 -0.0743869 0.0049459
323 1 0.0250815 0.200133 0.0249296 0.00541648 -3.35293 -0.0885594 0.031848 -0.00748581
325 1 0.0498357 0.199826 0.000180721 0.0264329 -3.3532 0.0264793 0.0500173 -0.0933438
1842 1 0.0250118 0.17529 0.0499233 0.00824969 -3.34974 -0.0502212 -0.0217777 0.0193894
1925 1 0.0502379 0.200113 0.0498957 0.016515 -3.35475 -0.0421104 0.0649088 -0.012328
252 1 0.100222 0.174928 0.0248059 0.0233419 -3.35315 -0.0328382 -0.0070323 0.0425353
327 1 0.0754221 0.199865 0.0246618 0.0508883 -3.35014 -0.091728 0.0600006 0.0428372
1846 1 0.0750114 0.175252 0.0499115 0.0138868 -3.34651 0.00479186 -0.0923767 -0.0663477
1929 1 0.0995493 0.200115 0.049885 0.0313592 -3.35799 0.110445 0.0130551 0.0394719
329 1 0.100091 0.200196 -0.000157994 0.016631 -3.35103 0.0337814 -0.0518255 0.00188583
256 1 0.149705 0.174743 0.0249402 0.0133503 -3.35471 -0.015166 0.0302121 0.0662515
331 1 0.125124 0.199975 0.0251282 0.0165995 -3.35652 -0.0339405 0.0147789 0.0384255
1850 1 0.125006 0.175026 0.0504291 0.0394284 -3.36775 -0.0179547 0.00648519 -0.0841729
1933 1 0.150039 0.200124 0.0503546 0.0395293 -3.36013 -0.0731109 -0.072399 -0.093318
333 1 0.149823 0.200093 -8.89965e-06 0.00563029 -3.34876 -0.00805311 -0.0221276 -0.0332748
260 1 0.199624 0.175151 0.0251026 0.0179212 -3.34773 0.0360017 -0.0561991 -0.0542832
335 1 0.17453 0.199747 0.0247618 0.0322014 -3.35124 0.0219936 0.0143396 0.100223
1854 1 0.174765 0.174436 0.0501154 0.0451097 -3.34876 -0.0805178 0.150094 -0.0195833
1937 1 0.199964 0.199693 0.0496926 0.0387639 -3.36006 -0.0746349 0.125289 0.0445408
337 1 0.199838 0.199689 0.000173262 0.0296399 -3.34873 -0.00376605 0.0517199 -0.0938301
264 1 0.249873 0.174745 0.0249354 0.0196635 -3.36299 -0.0105144 0.0413784 0.0740172