ITEM: TIMESTEP
2500
ITEM: NUMBER OF ATOMS
32000
ITEM: BOX BOUNDS pp pp pp
1.0088748707876356e+00 7.9991125129207205e+01
-3.6447442622240800e-01 8.1364474426217228e+01
-3.6356119805829223e-01 8.1363561198052935e+01
ITEM: ATOMS id type xs ys zs c_csym c_peratom fx fy fz
8 1 0.0500844 0.0252029 0.024804 0.0070858 -3.35628 -0.0132995 -0.0507073 0.0157811
83 1 0.0250962 0.050059 0.0248537 0.0116932 -3.35457 0.0456463 0.00360116 -0.0186399
1602 1 0.0249939 0.0251179 0.0497205 0.013161 -3.35436 0.0610008 -0.0230832 0.0390564
1605 1 0.0499679 0.000118071 0.0496417 0.0144263 -3.35978 0.0361873 -0.0418361 0.0126558
1685 1 0.0505376 0.0500645 0.0498142 0.0345901 -3.35672 -0.149883 -0.0659847 0.0356631
5 1 0.0501059 0.000342629 -0.000359311 0.0253185 -3.35744 -0.00596561 -0.076015 0.0653479
85 1 0.0500767 0.0498712 -0.000121994 0.00950032 -3.35253 0.0438439 0.0605876 0.0330853
12 1 0.100351 0.0247451 0.0248593 0.0302782 -3.34793 -0.089822 0.0645325 0.029872
87 1 0.0751202 0.0500062 0.0248167 0.00844168 -3.35674 0.0514175 -0.0359099 -0.00232114
1606 1 0.0753324 0.0249439 0.0497252 0.0214088 -3.35745 -0.0640658 -0.0325277 0.0355309
1689 1 0.100114 0.0495973 0.0499933 0.0152315 -3.35943 0.00327113 0.075209 0.0412805
1609 1 0.0997184 -0.000181951 0.0498041 0.0285759 -3.35999 0.084179 0.00765801 0.0522806
89 1 0.100058 0.0498866 -0.000132906 0.0109601 -3.35081 -0.00323047 0.0391431 -0.000980728
16 1 0.150187 0.0250947 0.0248312 0.0161427 -3.35569 -0.0373023 -0.0872469 0.0497288
91 1 0.124916 0.0499232 0.0248214 0.0181497 -3.35437 0.0554904 0.0270395 0.066575
1610 1 0.125022 0.0252314 0.0502333 0.0431409 -3.35881 -0.0195584 -0.136289 -0.0887854
1693 1 0.150157 0.0495828 0.0497786 0.0247125 -3.35944 -0.00733266 0.10655 0.0295382
93 1 0.150343 0.0502501 0.000206453 0.0472498 -3.35871 -0.0142454 -0.0730651 -0.139385
1613 1 0.150271 0.000132337 0.0498082 0.0309767 -3.35766 -0.0899318 -0.024021 0.0314447
10 1 0.125137 0.0253514 0.000106516 0.040862 -3.35593 0.0555073 -0.121695 -0.0916695
20 1 0.200239 0.0248012 0.0252639 0.0124502 -3.35995 -0.0171985 0.00144263 -0.0655082
95 1 0.17522 0.0497515 0.0248115 0.0154209 -3.35696 0.0554287 0.00954153 0.0497801
1614 1 0.175326 0.024833 0.0500488 0.012948 -3.36252 -0.0438729 0.0137368 0.0142703
1697 1 0.200257 0.049671 0.0502703 0.0275984 -3.35047 -0.0566461 0.0525792 -0.0240964
14 1 0.175194 0.0247817 6.11014e-05 0.00864998 -3.35692 0.00873871 0.0440294 -0.0205493
17 1 0.200367 3.33783e-05 0.000153931 0.0188716 -3.35252 -0.0768631 -0.0437198 -0.0432038
24 1 0.250044 0.0251183 0.0248052 0.0222127 -3.3629 0.0155474 -0.0106056 0.102911
99 1 0.224796 0.0501391 0.0251966 0.0350797 -3.34931 0.0763175 -0.125218 -0.0192487
1618 1 0.225112 0.0248216 0.049836 0.0237252 -3.35994 0.0395461 0.0400229 0.0564522
1621 1 0.250006 9.40828e-05 0.0501604 0.00626024 -3.35765 0.00443768 -0.00896114 0.00344745
1701 1 0.25025 0.0501079 0.0501549 0.0157473 -3.37116 -0.03655 -0.0541341 -0.018392
18 1 0.225126 0.0246267 -0.000143355 0.0242385 -3.34402 -0.0137752 0.0710588 0.0756041
101 1 0.249798 0.0497786 0.000275462 0.0378998 -3.36098 0.0642618 0.108406 -0.0359013
21 1 0.249941 -6.84449e-05 0.000201019 0.0075099 -3.35513 0.0464759 -0.0308685 -0.0306303
28 1 0.299986 0.0248957 0.0245553 0.0556469 -3.35959 0.0369213 -0.0349051 0.119922
103 1 0.275485 0.0500516 0.0249434 0.0379984 -3.35639 -0.187352 -0.00887903 0.0143405
1622 1 0.275266 0.0251295 0.0499204 0.0171955 -3.35875 -0.0627004 0.00151282 -0.0192655
1705 1 0.300184 0.0500437 0.0498556 0.0137898 -3.35404 -0.00754892 -0.0502592 0.0507284
1625 1 0.299755 -0.000144399 0.0502073 0.0174458 -3.35465 0.0309927 0.0409248 -0.0996141
32 1 0.34995 0.0245526 0.0251419 0.053143 -3.34814 0.10856 0.120065 -0.0462024
107 1 0.325453 0.0498089 0.0252029 0.0373832 -3.35598 -0.0266142 0.052568 -0.0613944
1626 1 0.324976 0.0249102 0.0499539 0.00546426 -3.3582 -0.0405461 0.0247859 0.0486791
1709 1 0.350061 0.0500037 0.0500969 0.0129264 -3.35581 0.0452393 0.0203936 -0.0586446
1629 1 0.349862 -0.000105723 0.0501208 0.00693077 -3.35502 0.0189481 -0.0144442 0.026075
36 1 0.399888 0.0245445 0.0248363 0.0441875 -3.36356 0.0462809 0.108017 0.0514867
111 1 0.375251 0.0500957 0.0244829 0.0580488 -3.36037 -0.0393994 -0.0742966 0.189371
1630 1 0.374572 0.0252076 0.0499007 0.0588353 -3.35789 0.0930847 -0.0459679 -0.0188162
1713 1 0.400187 0.0496896 0.0501911 0.0310019 -3.36309 -0.0943967 0.013651 -0.0712462
31 1 0.375109 -5.1671e-05 0.0248578 0.0136087 -3.35528 -0.0745986 0.0151784 0.0184849
1633 1 0.399685 4.97992e-06 0.0500112 0.0275748 -3.36079 0.0870656 -0.0521658 -0.00038082
40 1 0.450054 0.0247407 0.0250331 0.00898081 -3.36251 0.0116308 0.0265111 0.0328154
115 1 0.424992 0.0500306 0.0250253 0.0132273 -3.35689 0.0339679 -0.0704074 0.0256168
1634 1 0.425307 0.0246378 0.0497543 0.0327692 -3.36134 -0.0731723 0.0380574 0.0226162
1717 1 0.450239 0.0499819 0.0501893 0.0250257 -3.35652 -0.0684676 -0.0476356 -0.00256591
38 1 0.474705 0.0247769 3.51555e-05 0.0183074 -3.35283 0.0129658 0.0265368 0.0592753
44 1 0.499666 0.0252886 0.0250394 0.0223362 -3.36795 -0.0214918 -0.0995495 -0.00879371
119 1 0.474626 0.0501649 0.0253067 0.0375953 -3.34932 0.0758742 -0.10596 -0.0640831
123 1 0.524614 0.0501939 0.0247334 0.0269231 -3.34864 0.139082 -0.078928 0.0641767
1638 1 0.475074 0.0247978 0.0503884 0.0211482 -3.35955 -0.0261903 0.0588857 -0.0996593
1642 1 0.524791 0.0251966 0.0496748 0.0340582 -3.35907 0.0448732 -0.0540201 0.0805967
1721 1 0.500126 0.0500846 0.0499652 0.0210991 -3.3469 -0.0644296 -0.0682974 0.0725491
121 1 0.499538 0.0500157 0.00011094 0.0158473 -3.35182 -0.0164761 0.0134309 0.00226342
48 1 0.549826 0.0248909 0.0247114 0.0185382 -3.36196 0.013733 0.0906978 0.0576544
125 1 0.54967 0.0497581 -0.000461579 0.0373505 -3.35215 0.130172 0.0175802 0.095735
127 1 0.575116 0.0499282 0.0249103 0.00802404 -3.35933 -0.0608816 -0.0479068 -0.0115592
1646 1 0.575076 0.0250212 0.0499214 0.0143978 -3.36373 -0.0545878 0.00646412 0.0365066
1725 1 0.549967 0.0497413 0.0500844 0.0191514 -3.37688 -0.0262096 0.0600743 -0.0180752
1645 1 0.549874 -7.07544e-05 0.0499068 0.0105124 -3.3509 -0.042679 0.0586748 0.0248009
52 1 0.600104 0.0249585 0.0251593 0.0190478 -3.35519 -0.0132562 -0.00016161 -0.035814
131 1 0.624945 0.0499914 0.0248358 0.0120089 -3.3569 0.0478323 0.0372654 0.0473649
1650 1 0.625229 0.0250329 0.0499955 0.0130348 -3.36085 -0.0395612 0.0341118 0.0158028
1729 1 0.600348 0.050128 0.0498408 0.0283173 -3.35367 -0.0738996 -0.0618924 0.0345218
1649 1 0.599899 -0.000196818 0.0498 0.026795 -3.35819 0.0271317 0.0775978 0.0445671
51 1 0.625379 0.000237705 0.0251608 0.020024 -3.35871 -0.0834047 -0.0240733 -0.0784766
56 1 0.650121 0.0251073 0.0246862 0.0226928 -3.35268 0.0121252 -0.00139469 0.0724786
135 1 0.674649 0.0498587 0.0250223 0.0461725 -3.35776 0.179859 0.0716049 0.018644
1654 1 0.674884 0.0251296 0.0501799 0.0145836 -3.35531 0.0703986 -0.00905056 -0.0429031
1733 1 0.650185 0.050283 0.0499161 0.0243469 -3.35839 -0.0738323 -0.0416335 0.0219595
60 1 0.699833 0.0248267 0.0252786 0.0339032 -3.3661 0.0881494 0.10468 -0.0065503
139 1 0.725596 0.05027 0.0253312 0.0440842 -3.35945 -0.124604 -0.112677 -0.0377568
1658 1 0.725276 0.0252147 0.0500375 0.0262037 -3.36091 -0.0747964 -0.0883085 -0.0120466
1737 1 0.700209 0.0500212 0.0502616 0.0107581 -3.36787 -0.0571444 0.00282224 -0.0644157
59 1 0.72462 -4.24456e-05 0.0251006 0.0375981 -3.3604 0.148711 0.0528813 0.0347895
64 1 0.75041 0.0250035 0.0252606 0.0308557 -3.36137 -0.115914 -0.0701499 -0.0416038
143 1 0.774976 0.0497275 0.0250452 0.0079328 -3.34832 0.00304338 0.0608242 0.00939758
1662 1 0.77498 0.0247271 0.0501084 0.0166697 -3.35178 0.0528577 0.0194816 0.0214091
1741 1 0.750114 0.0498514 0.0502204 0.00787582 -3.34568 0.0424122 0.0445585 0.00637582
63 1 0.775293 -0.00020298 0.0250519 0.0297869 -3.35986 -0.108745 0.0313228 0.0425368
61 1 0.749705 0.00012319 0.000376755 0.0268887 -3.3511 0.0515039 -0.0618473 0.0182025
1661 1 0.74992 -0.000173364 0.0502883 0.0233974 -3.35595 -0.0143136 0.0530881 -0.130056
141 1 0.750188 0.0501986 1.61373e-05 0.0272178 -3.34781 -0.0423462 -0.0697861 0.0665532
68 1 0.799643 0.0250796 0.0251945 0.0465238 -3.34906 0.117845 -0.0864761 0.00861834
147 1 0.824998 0.0498233 0.0248695 0.0109288 -3.36034 0.030141 0.00233319 0.040054
1666 1 0.825333 0.0249478 0.0500738 0.0145876 -3.3669 -0.0206975 -0.00401607 -0.0174141
1745 1 0.800186 0.0496052 0.0498832 0.0206285 -3.36095 -0.00142223 0.0712096 0.048249
1665 1 0.800307 -0.00024683 0.050274 0.0319799 -3.35253 -0.0299195 0.0867667 -0.0463306
67 1 0.825034 6.93539e-05 0.0252311 0.0112515 -3.36018 0.031698 0.0293678 -0.0188053
71 1 0.875081 0.000333654 0.0251461 0.0172742 -3.35925 0.0281377 -0.0399953 -0.0477188
72 1 0.850427 0.0250359 0.0250033 0.0187462 -3.35204 -0.105011 0.000117089 -0.0331087
151 1 0.87504 0.0501611 0.0248887 0.0162699 -3.35858 0.0537806 -0.0039189 -0.0345579
1670 1 0.874881 0.0255608 0.0499364 0.0585701 -3.34756 0.107861 -0.188019 0.0287185
1749 1 0.85017 0.0499547 0.0498196 0.0124675 -3.3437 -0.0599446 0.0733204 0.0345232
1669 1 0.850418 -0.000106913 0.049863 0.0286989 -3.35523 -0.0311204 0.0508574 0.0832995
70 1 0.875186 0.0250569 -0.000326796 0.0155304 -3.35269 -0.0212718 -0.00459961 0.0667466
74 1 0.924817 0.0250803 -0.000220983 0.0114222 -3.35018 0.083267 -0.0155285 -0.0129761
76 1 0.900434 0.0252297 0.024767 0.0403784 -3.35822 -0.130887 -0.0374356 0.0580986
155 1 0.925363 0.0498491 0.0250707 0.016628 -3.35397 -0.0749709 0.0548331 0.00376352
1674 1 0.925047 0.0248513 0.0501576 0.0127986 -3.34774 0.0102147 0.0399417 -0.00470796
1753 1 0.900054 0.0495111 0.0499964 0.0543373 -3.35779 0.0431745 0.185694 0.02377
153 1 0.900239 0.0498541 -0.000198966 0.0108505 -3.3585 -0.062933 0.0477136 0.025173
4 1 1.00043 0.0248609 0.0248587 0.0461413 -3.36442 -0.152903 -0.013062 -0.0588854
1681 1 1.00002 0.0498316 0.0495798 0.0204653 -3.35551 0.00870316 0.0781787 0.0973871
78 1 0.974693 0.0252445 -9.09218e-05 0.0278365 -3.37261 0.0431122 -0.136143 0.0262566
80 1 0.949809 0.025019 0.0249145 0.00875223 -3.36297 0.0573325 -0.0626745 0.000308189
159 1 0.975134 0.0497704 0.0251409 0.0198363 -3.35219 -0.035528 -0.0257666 -0.0122927
1678 1 0.975018 0.0246501 0.0501272 0.0197417 -3.35807 -0.000621139 0.0459462 -0.0249275
1757 1 0.950122 0.049683 0.0501698 0.0157145 -3.35426 0.00177501 0.0412157 0.0191567
79 1 0.974634 -0.000100229 0.0252913 0.0314549 -3.36035 0.0411071 0.0900232 -0.110902
157 1 0.950049 0.0500007 7.14219e-05 0.0100458 -3.34999 -0.0293449 -0.0145218 -0.0270813
1677 1 0.949501 -6.54855e-05 0.0499579 0.0395269 -3.35009 0.0774425 0.0462854 0.0359066
88 1 0.0503306 0.0752181 0.0253441 0.0343821 -3.35212 -0.0195112 -0.0472686 -0.136442
163 1 0.0253217 0.10012 0.0249629 0.0139057 -3.3579 -0.0734732 0.00758508 0.0209412
1682 1 0.0251286 0.0753428 0.0494215 0.0411105 -3.36012 -0.0538268 -0.0880701 0.135059
1765 1 0.0503496 0.100206 0.0502517 0.0282355 -3.34677 -0.0506477 0.0157254 -0.0587074
92 1 0.10035 0.074824 0.0249722 0.0159014 -3.35463 -0.0635376 -0.0138555 -0.016044
167 1 0.0753196 0.100095 0.0256065 0.0529842 -3.35506 0.000122576 -0.0475218 -0.170038
1686 1 0.0752449 0.0747252 0.0498476 0.0200081 -3.33987 0.052738 0.0182673 0.0510135
1769 1 0.100061 0.0994682 0.0501657 0.0361891 -3.35568 0.0683006 0.147847 -0.00757809
169 1 0.100338 0.0998361 1.07123e-05 0.0201213 -3.36042 -0.121442 0.00779616 0.0280554
86 1 0.0751342 0.074819 0.0001155 0.0113952 -3.36314 0.0145793 0.0779535 -0.00309287
96 1 0.15011 0.074769 0.0249138 0.011287 -3.35314 -0.0251752 -0.0118106 0.0230154
171 1 0.125181 0.099312 0.0248436 0.0452445 -3.35545 -0.0163099 0.141838 0.0658678
173 1 0.149959 0.0999175 -0.000104103 0.0121833 -3.35977 0.0562291 0.0245681 0.0402932
1690 1 0.12501 0.0748755 0.050203 0.0195625 -3.35944 0.0604109 -0.0679815 -0.0282591
1773 1 0.150408 0.0996823 0.049952 0.0189506 -3.35388 -0.0384267 -0.00248088 0.0396526
90 1 0.125088 0.0746643 -0.000475354 0.0475437 -3.35109 0.0175449 0.0265185 0.0755822
100 1 0.200103 0.0746942 0.0253434 0.0255167 -3.34415 -0.000406588 0.0375002 -0.0972677
175 1 0.175081 0.0994884 0.0249995 0.0295238 -3.35128 -0.00414011 0.113334 0.0172201
1694 1 0.175213 0.074687 0.0497466 0.0227703 -3.35403 -0.0696913 -0.0291855 0.099006
1777 1 0.199991 0.0996166 0.0501039 0.0179958 -3.36343 0.0158729 0.0944434 -0.0127573
104 1 0.249653 0.0747776 0.0250828 0.0333316 -3.35291 0.147737 -0.0283112 -0.0619711
179 1 0.225252 0.099768 0.0249598 0.0219671 -3.36095 -0.0837669 0.094846 0.0228004
1698 1 0.225038 0.0749982 0.0499461 0.0205953 -3.35664 -0.0334362 -0.027579 0.145769
1781 1 0.250197 0.0996834 0.0499545 0.0307308 -3.34522 -0.132924 0.0547794 0.0292578
98 1 0.224746 0.0748969 0.000102834 0.0192041 -3.354 0.0579383 0.0369814 -0.0422949
108 1 0.299946 0.0746706 0.0249637 0.0173663 -3.34738 0.0579138 0.0839824 0.0225667
183 1 0.274768 0.0996595 0.0251766 0.00851382 -3.3548 0.035993 0.075722 -0.0505976
1702 1 0.275109 0.0750559 0.0499221 0.0155981 -3.34791 -0.0430063 -0.104696 0.0346682
1785 1 0.299775 0.0996672 0.0501242 0.0123751 -3.35677 0.0932081 0.0558038 -0.0253626
102 1 0.275111 0.0751991 -0.000126826 0.0353765 -3.35264 -0.11889 -0.0943061 0.0751456
185 1 0.299678 0.0996861 0.000323483 0.0281566 -3.35716 0.108159 0.102971 -0.0261337
106 1 0.324948 0.0746747 -1.28315e-05 0.0138891 -3.36235 0.0808867 0.00478995 0.00695389
112 1 0.350485 0.0753123 0.0250382 0.0493538 -3.36008 -0.0389531 -0.113348 -0.0594922
187 1 0.32511 0.0995162 0.0250972 0.0303818 -3.35752 -0.0638116 0.0865964 -0.073619
1706 1 0.325099 0.074939 0.0496749 0.0243746 -3.35301 -0.00650703 -0.0195896 0.0957549
1789 1 0.34971 0.100026 0.0499803 0.0317263 -3.3498 0.14141 -0.0272374 -0.00917225
189 1 0.349803 0.0996572 -0.000360883 0.0505369 -3.36353 0.0795506 0.0334552 0.0831114
116 1 0.400117 0.0747691 0.025115 0.0220297 -3.35283 -0.00601205 0.0950776 0.0344606
191 1 0.375236 0.100184 0.0249356 0.0223792 -3.35932 -0.0474451 -0.0431929 0.0644744
1710 1 0.37518 0.0751506 0.0499825 0.0188627 -3.36943 0.0343627 -0.086917 0.0228662
1793 1 0.40034 0.0998102 0.05033 0.02847 -3.35346 -0.055545 0.0130446 -0.128442
193 1 0.399874 0.100038 0.000103004 0.012347 -3.35101 0.0497318 0.0411276 -0.0043578
120 1 0.449765 0.0748474 0.0250601 0.0136977 -3.3524 -0.0334621 0.0328125 -0.0402912
195 1 0.425157 0.100123 0.025109 0.0160672 -3.35289 -0.0642887 -0.0826307 0.0128765
1714 1 0.425005 0.0748384 0.0500451 0.00880385 -3.35098 0.0136803 -0.018264 -0.0207782
1797 1 0.450046 0.0997636 0.0499141 0.0183124 -3.35744 -0.00161893 0.063036 0.0324004
197 1 0.449728 0.10012 6.87404e-06 0.0117603 -3.35019 0.00344614 -0.0474463 0.0166725
114 1 0.424525 0.0752093 -0.000122181 0.0463033 -3.35604 0.149997 -0.0698939 0.0408503
124 1 0.499978 0.0749928 0.0253068 0.0300715 -3.34248 -0.0473716 0.0509965 -0.164998
199 1 0.474499 0.099936 0.0250281 0.0321409 -3.35484 0.13852 0.0216774 -0.0286917
203 1 0.525039 0.0997985 0.0250546 0.0192458 -3.35662 0.0217418 0.082798 -0.0408455
1718 1 0.475276 0.0747914 0.049666 0.0639639 -3.35009 -0.102891 0.0505369 0.190868
1722 1 0.524931 0.0752438 0.0496721 0.0416949 -3.35159 0.0861442 -0.111514 0.1203
1801 1 0.499711 0.0999445 0.0500077 0.023535 -3.34927 0.0241698 0.0171255 -0.00506487
118 1 0.474706 0.0751209 0.000248089 0.0157609 -3.36186 0.054726 0.0106774 -0.0408474
122 1 0.524995 0.0746145 9.24279e-05 0.0356706 -3.35107 -0.0509512 0.168134 -0.0504709
128 1 0.550209 0.0746887 0.0247239 0.0292053 -3.35994 -0.0126948 0.0119825 0.078252
207 1 0.575008 0.0999331 0.024924 0.00719006 -3.35352 -0.0316994 0.0115678 0.0243802
1726 1 0.575177 0.0746424 0.0502904 0.0421894 -3.35743 -0.0457606 0.0870038 -0.0679945
1805 1 0.550173 0.0998007 0.049738 0.0304173 -3.35866 0.0074388 0.0346131 0.0317421
130 1 0.625213 0.0746901 -0.000297906 0.0147115 -3.3585 -0.111298 0.0896914 0.00462484
132 1 0.599631 0.0749316 0.0248396 0.0396055 -3.35364 0.10127 -0.0186987 -0.00274225
211 1 0.624964 0.0994818 0.0249106 0.0438353 -3.35117 -0.0251474 0.108188 -0.0361973
1730 1 0.625118 0.0750612 0.0498001 0.0114249 -3.3527 0.00398931 -0.0244627 -0.0221412
1809 1 0.600183 0.100015 0.0498319 0.0154202 -3.36325 -0.0732228 0.0143577 0.07323
136 1 0.650116 0.0748312 0.0243835 0.0519471 -3.34943 0.00746854 0.0263777 0.148588
215 1 0.675117 0.0998774 0.0250737 0.0148823 -3.36306 0.037161 0.0133057 -0.0356834
1734 1 0.674945 0.0749417 0.0501405 0.0143533 -3.3665 0.0290762 0.0230467 -0.0318543
1813 1 0.649908 0.0999789 0.0496254 0.020719 -3.34994 0.0174139 -0.0243971 0.0838237
140 1 0.700335 0.0751054 0.02516 0.0161649 -3.36733 -0.0856354 -0.0537782 0.0184626
219 1 0.725053 0.0999027 0.0251154 0.00635789 -3.36396 0.0405254 0.0220714 -0.0224851
1738 1 0.725113 0.0748785 0.050611 0.0333894 -3.35515 -0.00472479 0.0358709 -0.0890026
1817 1 0.700194 0.100175 0.0501386 0.0136016 -3.35187 -0.0369527 -0.0524068 -0.0271595
144 1 0.750273 0.0749507 0.0252788 0.0132192 -3.35157 -0.0184701 0.0312355 -0.036582
223 1 0.774877 0.100176 0.024905 0.0366862 -3.34909 0.0591445 -0.0897353 0.0548227
1742 1 0.775273 0.0747539 0.0500341 0.00851845 -3.3568 0.00920774 0.0130376 0.00223489
1821 1 0.750312 0.0995535 0.0500581 0.0333685 -3.36466 -0.079169 0.130747 0.0279687
148 1 0.799654 0.0748744 0.0248837 0.0381635 -3.36054 0.110568 0.00408904 0.0515125
227 1 0.82534 0.0997824 0.0249535 0.0297549 -3.34656 -0.0902795 -0.0328883 0.0472174
1746 1 0.825156 0.0746889 0.0499752 0.0140949 -3.36306 -0.0389258 0.0620271 -0.0206643
1825 1 0.800266 0.0999005 0.0500549 0.0159933 -3.36215 -0.0588398 -0.0454435 -0.0657252
152 1 0.849908 0.075012 0.0251027 0.0146137 -3.3617 0.0954645 -0.00989019 -0.0541459
231 1 0.875183 0.100263 0.0250154 0.0307941 -3.35255 -0.0606564 -0.0992723 -0.00347972
1750 1 0.875284 0.0750943 0.0499222 0.0170226 -3.36388 -0.0513808 -0.0391656 0.0374826
1829 1 0.85012 0.100247 0.0500052 0.0182377 -3.3596 -0.0361673 -0.0762015 -0.00759421
156 1 0.900162 0.074797 0.0249507 0.0105301 -3.35638 0.0298232 -0.0166051 0.0728913
235 1 0.92521 0.0999014 0.0251008 0.0101417 -3.35539 -0.0312904 -0.024256 0.00169346
1754 1 0.925335 0.0748711 0.0499952 0.0146391 -3.36121 -0.102782 -0.0301437 0.0518365
1833 1 0.899986 0.0997979 0.0500416 0.0173135 -3.35933 0.0471325 0.0678165 -0.00802811
84 1 1.00027 0.0747378 0.0246929 0.0301757 -3.35129 -0.028493 0.0929555 0.0723474
1761 1 0.999848 0.100162 0.0499476 0.0150297 -3.35796 0.0399579 -0.0292404 -0.0489886
160 1 0.950012 0.0749119 0.0249818 0.0129724 -3.34997 0.0234616 -0.00863051 0.035665
239 1 0.975376 0.0999932 0.0250825 0.0176175 -3.35688 -0.0758684 -0.0129707 0.0444605
1758 1 0.974964 0.0748927 0.0497382 0.0197982 -3.36094 0.0565898 0.0161052 0.0452806
1837 1 0.949928 0.0998441 0.0500623 0.0181577 -3.36277 0.0553087 0.11071 -0.0163939
161 1 1.00002 0.0999753 2.87556e-05 0.00771472 -3.35401 0.016489 -0.0484457 -0.0162275
237 1 0.950639 0.0998126 0.000214426 0.0501032 -3.35234 -0.123271 0.0116168 -0.0427079
162 1 0.025176 0.124617 -0.000169208 0.0388333 -3.3564 -0.0277923 0.107486 0.0671544
168 1 0.0500473 0.124782 0.0251116 0.0214424 -3.36027 -0.0176192 0.091833 0.0124051
243 1 0.0249244 0.149946 0.0252216 0.00961941 -3.36339 0.0829462 0.0159521 -0.0369375
1762 1 0.0249629 0.125271 0.0502051 0.0166471 -3.35968 0.0539714 -0.0317699 -0.0533816
1845 1 0.0504127 0.149999 0.0501868 0.0147598 -3.35825 -0.0950561 0.01113 -0.0334226
245 1 0.0498405 0.15014 6.81275e-05 0.0298821 -3.3532 0.0236213 -0.0543023 0.0783542
172 1 0.0999915 0.124918 0.0247969 0.0333508 -3.35861 0.105626 -0.05376 0.142688
247 1 0.0752249 0.149705 0.0249922 0.018399 -3.35245 -0.0321368 0.108075 0.0354606
249 1 0.0996959 0.149878 -0.000220528 0.0310255 -3.34967 0.113933 0.0487196 0.0501717
1766 1 0.0752649 0.125224 0.0501512 0.0244345 -3.35298 0.0366244 -0.0638871 0.0106823
1849 1 0.100255 0.149855 0.0500774 0.0102314 -3.35922 -0.00487509 -0.0260517 -0.0372996
166 1 0.0749288 0.125101 0.000338046 0.0217631 -3.34888 0.0158072 -0.0997724 -0.0672531
170 1 0.124908 0.12494 0.000306907 0.0315588 -3.35562 0.0743714 0.0219256 -0.0208067
176 1 0.150087 0.124704 0.0254553 0.0440613 -3.36121 -0.0332018 0.0150507 -0.157724
251 1 0.124789 0.150072 0.0249405 0.0267133 -3.36275 0.0322033 -0.0758446 0.0054326
1770 1 0.125301 0.124252 0.0501839 0.0600844 -3.36514 -0.11765 0.107541 -0.0795026
1853 1 0.150108 0.149622 0.0496383 0.0388856 -3.35635 -0.0394701 0.0736614 0.108119
253 1 0.149814 0.149768 -0.000158273 0.0138468 -3.36243 0.0441198 0.0133032 0.0415493
180 1 0.200099 0.124751 0.0249299 0.0175922 -3.35522 0.029908 0.0170616 0.0718571
255 1 0.175133 0.150003 0.0249508 0.0176171 -3.35351 -0.0726982 0.0245175 -0.0191235
1774 1 0.17533 0.12509 0.0499005 0.0248607 -3.35268 -0.0187053 -0.0912318 0.0159475
1857 1 0.199869 0.150234 0.049614 0.0388604 -3.35927 0.0365984 -0.0325337 0.068327
184 1 0.250058 0.125044 0.0251018 0.0156393 -3.35395 -0.076797 -0.0690191 0.00951219
259 1 0.225017 0.150197 0.024956 0.0129389 -3.35463 -0.0288917 -0.0734929 0.0184443
1778 1 0.225027 0.124996 0.0499108 0.0076921 -3.36516 -0.0246241 -0.0297487 -0.0317232
1861 1 0.250023 0.150037 0.0500743 0.0122581 -3.36032 0.00282334 0.00170294 0.0133123
188 1 0.300142 0.124735 0.0252612 0.0221722 -3.36965 -0.118134 -0.0344644 -0.0256059
263 1 0.274593 0.149634 0.0252484 0.0345078 -3.35372 0.0910757 0.00712227 0.0142445
1782 1 0.274594 0.124525 0.0505318 0.0717787 -3.35241 0.116294 0.116994 -0.149654
1865 1 0.299886 0.150033 0.0498524 0.0196904 -3.36171 0.0133386 -0.0550198 0.0505485
182 1 0.274625 0.124759 0.000156299 0.0135199 -3.36238 0.0948772 0.036504 -0.0133751
192 1 0.349895 0.12492 0.0250772 0.00718646 -3.35597 0.00861371 -0.0452192 -0.0234292
267 1 0.324885 0.149811 0.0249326 0.00535795 -3.35344 0.0647245 0.0286596 0.0406106
1786 1 0.324952 0.124833 0.0498428 0.00918559 -3.35082 -0.0484439 0.00677872 0.0369854
1869 1 0.350072 0.149899 0.0499714 0.00891797 -3.35429 -0.041714 0.00106552 -0.0315392
186 1 0.325032 0.124745 4.52867e-05 0.00876079 -3.35779 -0.0819332 -0.0373218 0.0386992
196 1 0.400156 0.124836 0.0253389 0.0224015 -3.36082 -0.0708688 0.0484323 -0.0399259
271 1 0.374854 0.149859 0.0250332 0.00916466 -3.3557 0.0184958 -0.0124696 -0.0054748
1790 1 0.37501 0.124902 0.0501885 0.0125654 -3.36231 0.0211179 -0.0197558 -0.020187
1873 1 0.39992 0.150049 0.0500733 0.0123717 -3.35923 0.0206985 -0.0569625 -0.00910579
190 1 0.37494 0.124959 0.000339966 0.0168657 -3.35863 0.00245336 -0.0106826 -0.0616922
200 1 0.449896 0.125013 0.0250117 0.0111522 -3.34543 -0.0138283 0.0249049 0.0488302
275 1 0.424805 0.149802 0.0247266 0.0305534 -3.35674 0.0385604 0.10226 0.0739808
1794 1 0.425021 0.125226 0.0500515 0.0275383 -3.35704 0.00818569 -0.0740023 0.00918513
1877 1 0.449699 0.15017 0.0498263 0.0147116 -3.35307 0.0311802 -0.0271841 -0.00577558
277 1 0.450051 0.149769 7.32897e-05 0.0211751 -3.36061 -0.0895698 0.071648 -0.0590584
204 1 0.500251 0.124973 0.0252358 0.0387513 -3.36973 -0.0366867 -0.00703312 -0.0684428
279 1 0.475038 0.150141 0.02513 0.0234559 -3.35165 0.0273304 -0.00613199 -0.046186
283 1 0.524754 0.150439 0.0249389 0.0423922 -3.35215 0.0912209 -0.0959325 -0.0183424
1798 1 0.474838 0.125257 0.0495945 0.0455577 -3.36041 0.00925586 -0.0523168 0.125688
1802 1 0.524882 0.124868 0.0503675 0.0414212 -3.34991 0.0791253 0.00749664 -0.141867
1881 1 0.500096 0.15006 0.0500285 0.0222796 -3.35345 -0.0532152 0.0235554 0.000616374
208 1 0.549809 0.125272 0.0250261 0.0233551 -3.35954 0.0214473 -0.0484538 0.0147113
285 1 0.550138 0.150183 -0.00022188 0.0161152 -3.35492 0.0333047 0.0239786 0.064392
287 1 0.575187 0.150087 0.0251001 0.0165288 -3.35942 -0.0697281 -0.031919 -0.0572794
1806 1 0.574832 0.125036 0.0498976 0.00812844 -3.35771 0.0444524 -0.0222233 0.0053056
1885 1 0.549707 0.15014 0.049663 0.0220406 -3.36516 0.0718945 0.0264159 0.0587347
212 1 0.600044 0.124841 0.0248845 0.0117735 -3.36147 -0.00798364 0.0469926 0.0319077
291 1 0.6253 0.150069 0.024966 0.0218355 -3.35631 -0.0673519 -0.00213707 0.0120166
1810 1 0.624991 0.125399 0.0499358 0.0367281 -3.36466 -0.0374285 -0.0824173 0.000347929
1889 1 0.599748 0.15023 0.0499813 0.018252 -3.35197 0.0438466 -0.0654393 -0.00106815
214 1 0.674794 0.12488 -0.000215997 0.0164402 -3.36304 0.0650539 0.00291081 0.0168701
216 1 0.649836 0.124634 0.0249726 0.0312078 -3.35065 0.0617195 0.0589254 0.0358294
293 1 0.650122 0.149694 0.000471973 0.064342 -3.35161 -0.0200658 0.0979642 -0.116572
295 1 0.675205 0.149795 0.0249811 0.0152232 -3.35576 -0.0448989 -0.0312693 0.010319
1814 1 0.675113 0.124921 0.0499928 0.00702228 -3.35939 -0.00441414 0.0196168 -0.0213071
1893 1 0.650336 0.150116 0.0498347 0.0299414 -3.35479 -0.0806506 -0.0467656 0.0245583
220 1 0.700173 0.125136 0.0248612 0.0163823 -3.35595 -0.0707135 -0.0930996 0.016194
299 1 0.724868 0.149873 0.0250339 0.0128982 -3.35301 0.0849558 -0.00685419 -0.02716
1818 1 0.724909 0.124953 0.0499071 0.0126202 -3.35751 0.0979731 -0.0522518 0.00243581
1897 1 0.699953 0.150027 0.0501588 0.0155099 -3.3506 0.0103454 -0.0297318 -0.0278682
224 1 0.75023 0.124905 0.0248988 0.015604 -3.35301 -0.136152 -0.031547 0.0370144
303 1 0.774813 0.149764 0.0249744 0.0127165 -3.35028 0.0750703 0.0194172 0.0156944
1822 1 0.77505 0.125117 0.0499704 0.0166634 -3.36139 0.00840365 -0.0762916 0.0228059
1901 1 0.749986 0.149771 0.0499691 0.00656438 -3.35253 0.0240636 0.0522017 0.00252348
228 1 0.800276 0.124552 0.0249607 0.0352567 -3.35785 -0.0837875 0.0971547 0.0332769
307 1 0.825034 0.149663 0.0247542 0.0310744 -3.35796 0.0561991 0.0681032 0.0648611
1826 1 0.824839 0.124851 0.0500322 0.0133601 -3.35248 0.0347163 0.0131333 -0.0456614
1905 1 0.800018 0.150107 0.0498764 0.0212044 -3.35781 -0.0189335 -0.0648628 -0.00390834
232 1 0.849886 0.124836 0.0244498 0.0339238 -3.35889 0.0311035 0.0745505 0.0572958
311 1 0.874855 0.149792 0.0246387 0.0392058 -3.3702 0.0120929 0.0425461 0.0161563
1830 1 0.874884 0.125243 0.0497034 0.0292621 -3.35829 0.0545887 -0.022053 0.0296969
1909 1 0.849825 0.149599 0.050083 0.0311913 -3.35553 -0.000948238 0.0897704 -0.085366
236 1 0.900169 0.124822 0.0247978 0.0122698 -3.35481 -0.0103733 0.0506721 0.0655444
313 1 0.900203 0.149702 8.7486e-05 0.0113463 -3.3705 0.0144016 0.0824298 0.00310957
315 1 0.925177 0.149734 0.0253273 0.0255598 -3.34967 -0.0608606 0.0508276 -0.124804
1834 1 0.92484 0.12518 0.0499627 0.0258926 -3.35632 0.0109626 -0.110619 0.071577
1913 1 0.900102 0.150357 0.0500264 0.0444276 -3.35461 -0.0749486 -0.128096 -0.0191966
164 1 1.00003 0.125028 0.024897 0.0129904 -3.35486 0.060021 0.00119655 0.0420266
1841 1 1.00014 0.150004 0.050097 0.0147442 -3.34794 -0.00626826 0.0775614 -0.00380934
238 1 0.975159 0.124898 0.000293964 0.0101167 -3.34885 -0.0230838 0.0352581 -0.037867
240 1 0.949857 0.124895 0.0250653 0.0267169 -3.35905 0.12844 -0.0117884 0.0343213
319 1 0.975103 0.15036 0.0253041 0.0280994 -3.35959 -0.00887929 -0.0638557 -0.0433884
1838 1 0.975256 0.125215 0.0499577 0.0162455 -3.35824 -0.0695257 -0.0797137 -0.0211959
1917 1 0.950189 0.149717 0.0500455 0.025845 -3.35157 -0.0453692 0.0987791 0.0199478
241 1 0.99994 0.149952 0.000292338 0.0157865 -3.35576 0.0755788 -0.00769856 -0.0230631
317 1 0.950295 0.149882 0.000195914 0.0112791 -3.3589 -0.0759459 0.0175005 0.0159429
248 1 0.0503807 0.174908 0.0252958 0.0234028 -3.36359 -0.106181 0.0272639 -0.0610614
323 1 0.0250088 0.20015 0.0252299 0.00665555 -3.36758 0.0289143 -0.00851405 -0.0629965
325 1 0.0501346 0.200147 0.000159868 0.0225792 -3.36431 -0.0676149 -0.0668158 -0.0164289
1842 1 0.0250816 0.175139 0.0502511 0.00899318 -3.36822 -0.00928149 -0.00427039 0.0131917
1925 1 0.050127 0.200139 0.0502201 0.0135685 -3.35092 -0.0099405 -0.00722419 -0.0949888
246 1 0.0749768 0.174775 -4.93614e-05 0.0113177 -3.35351 0.0137622 0.0374202 0.00730668
252 1 0.100158 0.175225 0.0248511 0.0238892 -3.35692 -0.014853 -0.0954896 0.00699336
327 1 0.0753233 0.199904 0.0247597 0.0202503 -3.35495 -0.0824053 0.0463891 0.0264258
1846 1 0.0752264 0.175212 0.0498499 0.0128308 -3.34944 0.0312284 -0.0512148 0.0226983
1929 1 0.100021 0.199871 0.0498724 0.0117452 -3.35258 0.03352 0.0151441 0.00257017
250 1 0.12497 0.175077 -0.000117 0.0127229 -3.3557 0.00156359 -0.0665035 -0.0124709
256 1 0.149926 0.174868 0.0248902 0.0106576 -3.35542 -0.0209986 -0.000275453 0.00891062
331 1 0.12508 0.200181 0.0248789 0.0174269 -3.35471 -0.0522731 -0.0661477 0.00344166
1850 1 0.124936 0.174619 0.0501698 0.0345125 -3.35937 0.056622 0.0863237 -0.0490981
1933 1 0.149703 0.200094 0.0498802 0.0192083 -3.35088 -0.0332546 -0.0444544 0.0105471
333 1 0.149913 0.199808 -7.1418e-06 0.0300678 -3.35945 0.0303722 0.0937693 -0.0648997
260 1 0.200039 0.175039 0.0247111 0.0262527 -3.36091 -0.0783006 0.0477615 0.0686224
335 1 0.174963 0.199891 0.0250967 0.0218634 -3.3571 0.00583346 -0.0225096 -0.0858005
1854 1 0.174454 0.175332 0.0500617 0.0797005 -3.35905 0.138124 -0.10125 -0.0251842
1937 1 0.199992 0.199917 0.0504281 0.0327596 -3.35715 0.00885166 -0.0364852 -0.090807
337 1 0.200151 0.200041 -7.67703e-05 0.015443 -3.36339 -0.0176754 -0.0184833 0.00663525
264 1 0.249969 0.174833 0.0247353 0.0280183 -3.34516 -0.0340434 0.0242968 0.122687
339 1 0.225161 0.199952 0.0252786 0.014147 -3.35925 -0.00903333 0.0175047 -0.0430519
1858 1 0.224968 0.175001 0.0500199 0.00873933 -3.35408 0.00843024 -0.0126551 -0.0136636
1941 1 0.250347 0.199575 0.0500712 0.0322137 -3.36062 -0.057951 0.13268 -0.00373924
341 1 0.250124 0.200084 -7.17408e-05 0.0268052 -3.36127 -0.0616858 -0.0481839 -0.0234749
258 1 0.225011 0.175071 1.30559e-05 0.010247 -3.35623 0.023784 0.00719584 -0.0573304
268 1 0.299971 0.174651 0.0248186 0.0192654 -3.35144 -0.000954171 0.0656987 0.0425301
343 1 0.27503 0.199495 0.0248746 0.0220537 -3.35676 0.0360807 0.106418 0.0317962
1862 1 0.275223 0.175193 0.0500988 0.0421919 -3.34937 -0.057466 -0.123103 -0.0193751
1945 1 0.300291 0.199544 0.0498857 0.032347 -3.35859 -0.0263841 0.107112 0.0197465
262 1 0.274431 0.174412 0.000330253 0.0915462 -3.3544 0.157865 0.0915558 -0.128443
272 1 0.349742 0.175181 0.0247496 0.0326019 -3.35749 0.0284752 -0.0955049 0.0567408
347 1 0.325145 0.200015 0.024752 0.0156224 -3.3514 -0.0641471 -0.0125553 0.0709606