ITEM: TIMESTEP
17500
ITEM: NUMBER OF ATOMS
32000
ITEM: BOX BOUNDS pp pp pp
7.0844325829737569e+00 7.3915567417021094e+01
-2.5142268019866876e+00 8.3514226801980911e+01
-6.0336361099989944e+00 8.7033636109995456e+01
ITEM: ATOMS id type xs ys zs c_csym c_peratom fx fy fz
2 1 0.0368386 0.0234954 0.00509184 0.0928142 -3.34735 -0.155269 -0.0180715 -0.0133967
78 1 0.00220314 0.0230085 0.0230553 0.151244 -3.36144 0.10561 -0.0758357 0.0549796
81 1 0.0326003 0.0465531 0.0262073 0.0623523 -3.32889 0.0755798 -0.169508 -0.0202087
159 1 0.998713 0.0460137 0.0437143 0.2002 -3.33643 -0.022105 0.0126363 0.131173
30559 1 0.00720312 0.0468568 0.00165164 0.146435 -3.34248 -0.100892 -0.282888 -0.25029
8 1 0.0610302 0.0226149 0.0302201 0.187221 -3.34765 0.198092 0.207362 -0.0613902
12 1 0.0951268 0.0218506 0.0109286 0.255061 -3.35314 0.151638 0.395618 0.278439
1610 1 0.120652 0.0216842 0.0357535 0.160299 -3.34604 0.096827 0.0823617 -0.148107
87 1 0.0659386 0.0468851 0.00734077 0.139825 -3.37675 0.158719 -0.138878 0.156677
1689 1 0.0926111 0.0461673 0.0327467 0.167416 -3.37262 -0.210755 -0.114952 -0.220589
91 1 0.126066 0.0469928 0.0136917 0.131054 -3.34397 -0.066011 -0.306201 0.0906499
16 1 0.154295 0.0226358 0.0173687 0.105811 -3.35477 -0.0145956 -0.092667 -0.189211
1614 1 0.180177 0.0224984 0.040561 0.174342 -3.3432 0.164974 -0.0496005 0.208559
95 1 0.1838 0.0470058 0.0191961 0.0966329 -3.36237 0.108544 -0.118494 0.0583143
1693 1 0.150703 0.0456759 0.0389712 0.307376 -3.35603 -0.0495437 0.15612 -0.201939
20 1 0.213755 0.0228887 0.0215292 0.118325 -3.34666 -0.0405728 0.110982 0.0950154
99 1 0.244267 0.0463143 0.0250942 5.39973 -3.35729 0.0623873 0.0296893 0.0144
1697 1 0.209958 0.0466847 0.0439388 0.0596141 -3.34457 -0.0319259 -0.17824 -0.13656
18 1 0.247658 0.0240257 0.00282015 0.96391 -3.36946 0.0486906 0.0260415 0.0905022
97 1 0.217958 0.0478437 1.00017 0.586815 -3.34803 0.0646685 -0.212395 -0.0721013
24 1 0.273812 0.0227846 0.0288128 5.75192 -3.35403 -0.05963 0.0140628 -0.129981
22 1 0.29774 0.029645 0.00406143 2.11448 -3.23441 -0.0253458 -0.132541 0.114124
28 1 0.318481 0.0282867 0.028523 0.439504 -3.2344 0.00922874 -0.0748616 -0.207872
32 1 0.360436 0.0355746 0.0252055 0.219147 -3.2906 -0.0471196 0.0116057 -0.0786683
25 1 0.323716 0.00640188 0.00557559 5.93277 -3.16422 -0.289353 0.259034 0.240473
27 1 0.344852 0.00430916 0.0291047 0.440052 -3.27266 0.156728 -0.220297 0.120968
29 1 0.362895 0.0123712 0.00133266 6.89124 -3.25658 0.149155 0.287298 -0.187816
31 1 0.386423 0.0104043 0.0248622 0.362961 -3.29654 0.158009 0.144668 0.0209783
36 1 0.403367 0.0411263 0.0224399 6.26689 -3.29068 0.00499646 0.0514719 -0.18062
35 1 0.43007 0.0171052 0.0236447 10.5675 -3.31032 0.177478 -0.230476 -0.234527
40 1 0.442462 0.041441 0.00585451 7.17172 -3.30209 -0.149379 0.0580113 -0.193966
39 1 0.468039 0.0166534 0.00904893 6.93554 -3.20008 -0.0448584 0.0802441 -0.125817
1638 1 0.464534 0.0384548 0.0318099 1.09008 -3.26342 0.181488 0.422083 -0.203837
1641 1 0.494723 0.016893 0.0374591 6.899 -3.21846 0.289982 -0.0767743 0.049868
44 1 0.502254 0.0327779 0.0132359 10.9992 -3.20595 -0.280331 0.20249 -0.174093
43 1 0.535867 0.0178923 0.0182851 7.82632 -3.21919 -0.0810135 -0.186113 0.0535578
48 1 0.566542 0.0340368 0.02962 6.2359 -3.30122 0.160599 0.329181 0.230005
1642 1 0.526821 0.0349352 0.0442287 1.40249 -3.28731 0.23157 0.0416934 -0.0476145
52 1 0.575443 0.00593093 0.0166234 9.78214 -3.23229 -0.184619 0.0507789 -0.0606125
1650 1 0.600254 0.0172839 0.0369447 7.33668 -3.12576 0.169438 0.334147 0.297253
131 1 0.604755 0.0370692 0.0155223 1.54667 -3.24393 0.098253 0.0116912 0.0259834
1733 1 0.631735 0.0430831 0.0413735 6.78663 -3.25702 -0.0178939 -0.102595 0.265989
56 1 0.637835 0.0159749 0.0261074 1.00255 -3.32089 0.256239 0.0470063 -0.202756
135 1 0.668759 0.0412035 0.0277292 6.33898 -3.21559 -0.247493 -0.301965 0.03832
54 1 0.673878 0.0171193 0.00865196 0.808037 -3.32147 -0.187601 -0.0368715 0.115969
60 1 0.69881 0.0175924 0.0347851 7.26668 -3.23311 0.00487022 0.213281 -0.0214444
64 1 0.732675 0.0190307 0.0184922 11.6921 -3.26136 0.464141 0.142223 -0.0910016
139 1 0.705751 0.0429099 0.0153671 9.81338 -3.26002 0.011765 0.0126344 -0.076394
68 1 0.791619 0.0205289 0.0253789 12.5467 -3.27774 -0.027977 -0.126399 -0.103386
143 1 0.760594 0.0442439 0.0212122 11.4298 -3.27312 -0.12219 -0.292438 -0.106405
1745 1 0.787285 0.0453409 0.043403 6.82781 -3.23247 0.298127 -0.130631 0.152101
62 1 0.767258 0.0202101 0.9997 0.114597 -3.29662 -0.0167528 0.000234597 0.111013
145 1 0.79584 0.0437491 0.00282939 0.340555 -3.34555 0.0430642 0.110542 -0.105238
72 1 0.853003 0.0207269 0.0302713 0.150714 -3.32912 -0.262488 0.0871686 -0.0678054
147 1 0.82247 0.0444117 0.0270028 0.171813 -3.34403 0.019855 -0.0528951 -0.2371
149 1 0.856278 0.043966 0.00791703 0.0683409 -3.3665 -0.0381742 0.16602 0.0149578
66 1 0.826467 0.0206781 0.00581726 0.0594176 -3.35673 0.0259848 0.0351495 0.0539726
76 1 0.911263 0.0220828 0.0367133 0.11886 -3.35858 0.0757602 -0.0945922 -0.110933
70 1 0.886916 0.0211309 0.0115737 0.114792 -3.3409 -0.222646 0.107071 0.0784516
151 1 0.881387 0.0447057 0.0325847 0.0737936 -3.34916 0.122136 0.131975 -0.0645914
153 1 0.915762 0.0453281 0.0135049 0.0991143 -3.34415 -0.18904 -0.0101728 0.144415
74 1 0.945199 0.0218729 0.0173969 0.148322 -3.34639 -0.172889 -0.0556656 -0.0412661
80 1 0.969134 0.0227379 0.042054 0.166103 -3.35226 0.209952 -0.210707 0.0133978
155 1 0.940508 0.0459579 0.038043 0.103476 -3.34009 -0.0940728 -0.0586093 0.154044
157 1 0.972022 0.0463878 0.0188994 0.41231 -3.35921 0.233106 0.0594739 -0.0159652
30480 1 0.976964 0.022063 0.997657 0.337104 -3.33987 -0.0623417 0.290411 0.131186
158 1 0.00361051 0.069268 0.0223063 0.249201 -3.31452 -0.384034 0.290781 0.202164
161 1 0.0311659 0.0944898 0.0255192 0.429336 -3.351 0.417745 -0.182135 -0.102139
239 1 1.00032 0.093714 0.0441274 0.383413 -3.3252 -0.332671 -0.0850563 -0.208457
30484 1 0.0355731 0.0705434 0.00454235 0.222675 -3.33197 0.373589 0.021871 -0.169337
30639 1 0.00754783 0.0935865 0.000337409 0.0523471 -3.33327 0.0188964 0.171252 -0.0236811
82 1 0.0621685 0.0695725 0.0290316 0.0909116 -3.34635 0.0121194 0.131159 -0.0670948
92 1 0.0966092 0.0695884 0.0104933 0.124904 -3.33718 -0.153453 0.115166 -0.0940789
1690 1 0.121884 0.0696898 0.0343151 0.167491 -3.34241 0.0304163 0.156696 0.213111
167 1 0.0915302 0.0930622 0.0310124 0.193489 -3.35503 0.137075 0.199981 0.175357
165 1 0.0660621 0.0936666 0.00757428 0.172349 -3.36719 -0.103919 -0.0430549 -0.171612
171 1 0.12614 0.0945813 0.012779 0.119514 -3.32085 -0.224821 -0.214762 0.0507714
96 1 0.155611 0.0714231 0.0161059 0.18182 -3.33936 -0.0346869 -0.132904 0.101709
1694 1 0.181126 0.0705465 0.0403784 0.107838 -3.3331 -0.219304 -0.0365663 -0.0856715
175 1 0.185465 0.0953128 0.0184601 0.445486 -3.36959 -0.0218164 0.051886 0.0761939
1773 1 0.150286 0.0948878 0.0370008 0.0982234 -3.35672 0.197113 -0.105725 0.120561
100 1 0.215543 0.0704317 0.0218097 1.39935 -3.32537 -0.10081 0.0740097 0.0800381
1777 1 0.210186 0.0942301 0.0432919 0.76109 -3.33179 0.0503507 0.171599 0.00706636
98 1 0.243165 0.0748204 0.999199 5.32711 -3.27837 0.138057 -0.103888 -0.0708786
179 1 0.238867 0.0978872 0.021546 5.6023 -3.31294 0.0834918 0.200883 0.0900974
103 1 0.293398 0.0523197 0.026085 0.994396 -3.23211 -0.277648 0.134001 -0.257227
101 1 0.271031 0.0522481 0.00136883 2.11191 -3.2724 -0.134755 -0.0378707 0.0734964
104 1 0.265659 0.0745613 0.0238924 1.94212 -3.30007 0.0490919 0.226174 -0.0253901
108 1 0.307798 0.0836353 0.0202601 0.150538 -3.31408 -0.0077789 0.143766 0.0173287
107 1 0.333932 0.0599159 0.0237795 0.347215 -3.29954 0.148242 0.0161048 -0.115269
112 1 0.350999 0.0910051 0.0166404 6.3607 -3.35698 -0.133632 0.209611 0.108563
1706 1 0.329618 0.0837107 0.0454062 0.344769 -3.30934 0.321093 -0.270617 0.0367261
1710 1 0.372413 0.0898672 0.0424587 6.35046 -3.33968 -0.0802644 0.082074 -0.143061
111 1 0.376395 0.0666207 0.0191583 6.86958 -3.30811 -0.132046 -0.118661 0.229352
115 1 0.412055 0.0624679 0.00213626 5.32161 -3.26046 0.154822 0.251778 -0.014073
1713 1 0.398786 0.0657895 0.0437306 7.11678 -3.35738 0.211217 -0.14724 0.00113774
116 1 0.405603 0.0889445 0.0210982 1.91615 -3.33763 0.131138 -0.0776435 0.155779
1717 1 0.435878 0.0648665 0.0270951 0.799442 -3.28032 0.0172547 -0.107949 -0.12097
119 1 0.474233 0.0608159 0.0124053 4.559 -3.26394 -0.0565376 -0.121494 0.147822
120 1 0.44515 0.083606 0.00509144 3.85166 -3.32075 -0.0218926 0.0977397 0.0786655
1718 1 0.467705 0.0856159 0.0325817 0.418568 -3.32383 0.0287908 -0.118458 -0.0216234
1721 1 0.497757 0.0591042 0.0368517 0.728709 -3.34491 0.165749 -0.156224 -0.0104903
124 1 0.506734 0.0824547 0.0190545 0.446052 -3.24022 -0.187121 -0.0174653 0.163944
123 1 0.5379 0.055958 0.0237985 5.0775 -3.30729 -0.296649 0.0253153 0.0610467
128 1 0.543367 0.0804775 0.00513066 0.574783 -3.29221 0.210227 0.170732 -0.17055
1726 1 0.566941 0.0820987 0.029969 0.253941 -3.31067 0.000831985 -0.035418 0.0608099
1722 1 0.529863 0.0810652 0.0440814 0.535798 -3.33151 -0.102388 0.0759814 -0.0334244
127 1 0.574649 0.0585421 0.0103691 6.41033 -3.28436 -0.12318 0.0237018 -0.24967
132 1 0.604906 0.0822781 0.0134907 7.06632 -3.29881 -0.255249 -0.0786175 -0.187872
1729 1 0.595963 0.0595291 0.0358029 1.54833 -3.33056 0.181915 -0.214299 0.23055
1730 1 0.627377 0.0829743 0.0375253 9.22131 -3.24455 -0.0276637 0.0199747 0.394734
136 1 0.636519 0.0605846 0.0184743 7.27718 -3.19926 -0.0403545 0.2189 -0.141045
1734 1 0.665236 0.0686016 0.0428829 9.4897 -3.26021 0.145644 0.128822 -0.0804717
140 1 0.677097 0.0674132 0.0119382 10.086 -3.25804 0.0978983 -0.00693153 -0.0486353
215 1 0.646787 0.0903484 0.0102728 9.22441 -3.29138 0.0744747 -0.13965 -0.118789
144 1 0.731989 0.0676611 0.0163004 12.1773 -3.27004 0.0566024 -0.0587614 0.118261
219 1 0.704495 0.0906787 0.0127014 12.4113 -3.24275 -0.0978593 0.240045 0.0392955
1821 1 0.728828 0.0923634 0.0360172 6.94407 -3.25691 0.420236 -0.00353469 -0.13638
1817 1 0.695002 0.0914448 0.0514998 11.0266 -3.22857 -0.186305 0.0157615 -0.192249
148 1 0.793334 0.068473 0.0216289 0.313341 -3.32257 -0.0927737 -0.0141275 0.198361
223 1 0.763492 0.0926095 0.0175224 0.172135 -3.33729 -0.103324 -0.00293172 0.249209
1825 1 0.788135 0.0919863 0.0421885 0.255113 -3.34575 0.240941 0.173686 -0.0555426
1742 1 0.758872 0.0691482 0.0393074 6.60307 -3.25329 -0.124112 -0.063395 0.0331393
225 1 0.796374 0.0918877 1 0.11971 -3.32399 0.197548 0.076395 -0.128825
152 1 0.851983 0.0678562 0.029018 0.119501 -3.36514 -0.0527082 0.195044 -0.147917
229 1 0.855363 0.0919692 0.00595653 0.101375 -3.36148 0.00537171 -0.0073605 0.0342469
146 1 0.826232 0.0677093 0.00423309 0.0644793 -3.36147 0.0886623 0.0361011 -0.1161
227 1 0.822137 0.0928061 0.0243007 0.100227 -3.36233 0.12288 -0.16909 0.0120377
156 1 0.91053 0.0683594 0.0351801 0.220774 -3.33873 -0.0437383 0.0677246 -0.152039
150 1 0.885501 0.0684897 0.00962575 0.0753 -3.35711 -0.0444073 -0.0682523 0.172212
233 1 0.914195 0.0929494 0.0123829 0.0680925 -3.33898 0.0386172 0.101174 0.0498082
231 1 0.881172 0.0918572 0.0306716 0.1914 -3.35346 0.00216948 0.130583 -0.0116451
154 1 0.94222 0.0700816 0.0153442 0.582768 -3.33782 0.541514 -0.0440083 0.190898
160 1 0.969423 0.0694628 0.0406786 0.1508 -3.36675 0.0240807 0.124726 -0.190422
237 1 0.974078 0.0932506 0.0187534 0.0771639 -3.39249 -0.112586 -0.0163549 0.0687307
235 1 0.939237 0.0929903 0.0372048 0.172491 -3.34752 0.153443 0.0111465 -0.229306
241 1 0.032154 0.141422 0.025565 0.279093 -3.34676 0.111165 0.0335335 -0.488487
238 1 0.00346282 0.117786 0.0210254 0.143193 -3.35344 -0.101226 -0.0572495 0.0747201
30564 1 0.0371576 0.117475 0.00267142 0.234519 -3.34453 -0.182481 0.0403552 0.32092
319 1 0.998416 0.141325 0.0423512 0.0976136 -3.33931 -0.00529142 0.0109889 0.0790499
162 1 0.061262 0.117278 0.0285846 0.157714 -3.35519 0.150552 0.0790986 -0.152532
172 1 0.120699 0.117998 0.0342136 0.0463229 -3.34673 -0.074599 -0.0112761 -0.000795652
245 1 0.0900268 0.141514 0.0309241 0.0887106 -3.36294 0.124027 0.00740378 -0.118554
30643 1 0.0655851 0.141248 0.0063391 0.100836 -3.36634 -0.108093 0.0758551 0.128383
166 1 0.09612 0.117246 0.00993614 0.128785 -3.35368 -0.173512 0.110015 -0.0294062
249 1 0.12403 0.142239 0.0121697 0.109058 -3.35454 -0.0728029 0.00468636 0.114462
176 1 0.153662 0.118826 0.015566 0.127953 -3.326 0.256981 0.0618382 0.0585419
255 1 0.182666 0.144711 0.018263 6.7681 -3.32902 0.104675 -0.232625 0.0302424
251 1 0.149424 0.142528 0.0365848 0.124841 -3.33171 0.0333519 -0.0250557 0.0624345
1774 1 0.180057 0.119173 0.0402671 0.251167 -3.36447 0.0563231 -0.113279 -0.193218
180 1 0.212299 0.121938 0.0197047 6.6922 -3.33428 -0.101233 -0.125949 0.0281012
1778 1 0.234967 0.121994 0.0448434 5.67853 -3.30577 0.239149 -0.216189 -0.0885766
1857 1 0.208542 0.14535 0.0418725 6.94883 -3.30323 -0.0700471 -0.141907 0.0145308
184 1 0.25376 0.130064 0.0171677 0.118841 -3.32073 -0.180627 0.0329053 -0.156161
183 1 0.280584 0.106785 0.0186001 0.0516583 -3.31835 -0.000265894 -0.0173 0.0506652
188 1 0.295848 0.138796 0.0150961 6.58175 -3.34114 -0.16074 0.00130572 -0.169678
1782 1 0.276488 0.130799 0.0424191 0.15836 -3.32067 0.162112 -0.161847 -0.0542543
1785 1 0.303736 0.106738 0.0436446 0.0966825 -3.30191 -0.0223589 0.419909 -0.0964499
1789 1 0.346152 0.114438 0.0402474 7.1463 -3.33624 0.0234637 -0.000374593 0.00839622
187 1 0.322942 0.115329 0.0157278 7.76926 -3.32622 0.154386 -0.175131 0.0218797
192 1 0.353367 0.139503 0.0197042 0.496758 -3.32023 0.175604 -0.121302 0.194068
1786 1 0.319607 0.13878 0.0393711 7.17919 -3.3474 -0.0176003 -0.0507408 -0.0364374
195 1 0.43658 0.10911 0.0255703 2.41328 -3.30929 0.076137 -0.00663093 -0.208642
191 1 0.381766 0.115729 0.0217705 1.85613 -3.28676 -0.0171468 -0.112859 -0.0385097
196 1 0.414765 0.137114 0.0271857 6.33338 -3.31112 -0.112291 0.200737 -0.105781
1790 1 0.377146 0.138429 0.0450986 0.282908 -3.31269 0.31471 -0.0897322 -0.15841
1793 1 0.403341 0.11223 0.0460769 0.325328 -3.32368 0.213048 0.153681 0.0171586
194 1 0.438447 0.132525 0.00153466 3.98525 -3.29057 -0.0814565 0.0256647 0.0825364
199 1 0.475631 0.106456 0.0107601 0.602693 -3.34013 -0.153567 0.0532629 0.0106618
200 1 0.464687 0.131384 0.0299099 5.6699 -3.31113 0.0379961 -0.0621646 -0.0737646
1801 1 0.498687 0.106964 0.0368125 0.306333 -3.32378 -0.119119 0.118655 0.144439
1805 1 0.536744 0.104585 0.0243114 0.703787 -3.28843 0.12612 0.176175 -0.240861
208 1 0.542942 0.128629 0.00319235 7.22469 -3.32397 0.088377 -0.22751 0.204022
1802 1 0.502864 0.130216 0.0145212 0.593961 -3.29956 -0.0588128 -0.0965688 0.0674209
1806 1 0.567787 0.128102 0.0272866 6.74686 -3.31771 -0.178947 0.101233 0.151097
1808 1 0.527519 0.130295 0.0406803 0.683519 -3.3137 0.151629 -0.266605 0.125644
207 1 0.575093 0.104516 0.00741267 7.1136 -3.31176 -0.33836 0.233124 0.240719
212 1 0.586274 0.136511 0.00126395 7.92488 -3.3233 0.228683 -0.0871776 0.267434
211 1 0.616775 0.11283 0.0055662 6.60115 -3.32162 0.107973 0.305591 -0.0530906
1809 1 0.596883 0.106176 0.033203 7.30077 -3.31054 0.0804884 -0.361856 0.073326
1810 1 0.612379 0.136677 0.0269746 7.04209 -3.31346 -0.120574 -0.015861 -0.0974326
216 1 0.647529 0.137976 0.00835055 0.393811 -3.29942 -0.342426 -0.0781312 -0.236399
220 1 0.674753 0.113474 0.0102725 6.6189 -3.27422 0.024288 0.178944 0.135792
1813 1 0.640069 0.113986 0.0299936 9.81309 -3.29166 0.275326 -0.0856215 0.0228499
1897 1 0.672161 0.139063 0.0310821 5.80877 -3.22889 -0.0837931 -0.162768 0.36253
224 1 0.735341 0.116748 0.014941 0.194959 -3.3308 -0.130071 -0.169815 0.0482802
1818 1 0.70024 0.115644 0.0326299 6.68009 -3.27559 0.241851 -0.0429026 -0.0135808
1901 1 0.732301 0.140981 0.0345329 0.577371 -3.30486 -0.170753 0.057417 0.241466
299 1 0.70528 0.140594 0.0129842 0.373213 -3.32181 0.00687607 -0.171272 -0.211387
228 1 0.793639 0.116752 0.0196006 0.137621 -3.33911 0.00169286 0.0442957 0.233625
1822 1 0.760976 0.116626 0.0386577 0.187383 -3.34904 -0.0465264 -0.0390124 -0.133615
303 1 0.764639 0.141222 0.0167106 0.11376 -3.31819 0.133798 0.00338851 0.0815916
1905 1 0.789765 0.140949 0.0409166 0.139696 -3.3611 0.124309 0.0367097 -0.0168007
232 1 0.853288 0.116299 0.0264426 0.228961 -3.34496 -0.309365 0.169494 0.0171311
1826 1 0.818698 0.11692 0.0439706 0.133587 -3.36703 -0.0170888 0.127765 0.0894661
307 1 0.823741 0.141812 0.0218845 0.423731 -3.34698 -0.164133 -0.246867 0.41016
309 1 0.856166 0.140686 0.00458833 0.154264 -3.34043 0.271138 0.149829 0.00188806
226 1 0.826906 0.116417 0.00203659 0.0675485 -3.33699 0.0417642 -0.0882663 0.111546
236 1 0.91036 0.117547 0.0327097 0.0912922 -3.3484 0.114759 -0.153075 -0.0370086
230 1 0.885633 0.116767 0.00866751 0.0444272 -3.34612 0.0644277 0.0448836 -0.188336
311 1 0.881949 0.141481 0.0288173 0.112692 -3.33673 -0.0903249 -0.0934816 -0.0274097
313 1 0.914647 0.14202 0.0106552 0.234533 -3.35134 0.0363036 -0.275515 -0.038555
234 1 0.944383 0.117594 0.0154288 0.171579 -3.36931 -0.0119618 -0.216987 -0.129486
240 1 0.969912 0.116188 0.0400497 0.344108 -3.35354 -0.00516555 0.26496 -0.251977
315 1 0.940665 0.141317 0.0353014 0.107931 -3.34149 -0.0776502 -0.116409 0.136062
317 1 0.974639 0.140815 0.0173331 0.19691 -3.32397 -0.0720032 0.00168473 0.110099
321 1 0.0312802 0.190413 0.0233335 0.180625 -3.32968 0.11202 0.0777309 0.0627299
318 1 0.00264843 0.165947 0.0214816 0.196583 -3.32828 0.0160361 -0.0938608 -0.265756
399 1 0.998673 0.189707 0.0413705 0.0660606 -3.34082 0.0121526 0.00537815 0.181274
30644 1 0.035417 0.165957 0.00381503 0.214815 -3.34566 0.0775449 -0.119688 -0.195244
242 1 0.0612696 0.165689 0.0279433 0.104629 -3.32565 0.0196 -0.0209316 -0.177853
246 1 0.119184 0.166014 0.0338839 0.0620504 -3.36171 0.0367181 0.131808 -0.0728808
325 1 0.0899499 0.18996 0.0308137 0.118603 -3.31723 0.092099 0.0196298 0.114188
30723 1 0.065572 0.189519 0.00673122 0.302251 -3.30624 -0.128232 0.365391 -0.0188143
30648 1 0.0938879 0.166051 0.00906935 0.119744 -3.30645 0.117591 -0.158259 0.294216
30727 1 0.123514 0.191138 0.0125687 7.25229 -3.34596 0.301348 -0.215933 0.10663
256 1 0.178631 0.16675 0.0411431 7.71666 -3.33435 -0.0504499 0.214773 -0.391722
250 1 0.153614 0.167693 0.0160604 7.25383 -3.36224 -0.0748589 0.0839968 -0.0408862
329 1 0.150347 0.190874 0.0367967 8.06747 -3.34486 -0.386348 -0.296361 0.159185
335 1 0.167144 0.199963 0.00995246 6.60615 -3.28153 -0.257627 -0.0774062 -0.264004
259 1 0.224969 0.153221 0.0144134 0.0938448 -3.31038 0.018764 -0.0835456 -0.120235
260 1 0.19562 0.175644 0.0122926 0.145298 -3.31085 -0.150076 0.108141 0.00969432
264 1 0.237203 0.184725 0.00868492 6.99544 -3.35067 0.0446322 0.123102 0.0962615
1858 1 0.220569 0.176974 0.0357775 0.427321 -3.33935 -0.0123471 -0.0620612 0.266616
1937 1 0.190249 0.199252 0.0343423 0.12007 -3.27741 0.283776 -0.124446 0.00378231
1861 1 0.249388 0.153777 0.039183 0.0952896 -3.31012 -0.124743 0.00999983 0.12532
263 1 0.266676 0.162236 0.0123935 7.52766 -3.35445 -0.0335685 -0.157921 -0.282608
1862 1 0.262908 0.184652 0.033905 6.99246 -3.3404 -0.249598 0.257092 0.144724
268 1 0.296977 0.186437 0.0160844 0.11629 -3.31779 -0.066075 0.0865899 0.00564813
1865 1 0.290848 0.162215 0.0371373 7.13636 -3.31504 0.0650491 -0.124828 0.0411023
267 1 0.325284 0.163655 0.0183142 0.271407 -3.30013 0.185913 -0.289906 0.235547
272 1 0.357199 0.187307 0.0232909 0.198875 -3.35053 -0.127262 -0.104172 0.056143
1869 1 0.351605 0.163191 0.0431921 0.450266 -3.33748 -0.294889 -0.0785956 -0.0257122
1866 1 0.32099 0.1857 0.0409759 0.166547 -3.34323 0.216522 0.0817474 0.110563
271 1 0.385842 0.163026 0.0258879 0.202014 -3.3301 -0.014786 -0.1821 -0.218452
273 1 0.422773 0.163216 0.0086073 7.75322 -3.35545 -0.137275 -0.0286062 -0.16481
276 1 0.415786 0.186247 0.0310393 0.190678 -3.33892 0.1254 -0.0198522 -0.143946
270 1 0.392058 0.186586 0.00552821 0.228892 -3.33914 0.000534065 0.23209 0.105016
1870 1 0.381538 0.185659 0.0488812 0.0585015 -3.32848 -0.0293787 0.138085 0.0346655
275 1 0.445586 0.160702 0.0334785 6.2393 -3.32548 0.073963 0.202181 -0.161254
280 1 0.451222 0.187297 0.0138837 7.65485 -3.34301 -0.115426 -0.065756 0.109893
279 1 0.464971 0.15571 0.00651105 5.84827 -3.2862 -0.160279 -0.0984847 0.223355
284 1 0.491422 0.179849 0.0127473 7.21074 -3.31153 0.118361 0.0161914 -0.0272514
1881 1 0.490933 0.154553 0.0326337 6.20183 -3.27505 0.0238865 0.0594292 -0.13277
1878 1 0.475714 0.186642 0.0390215 7.17545 -3.31263 -0.0953746 -0.240213 -0.0443554
1882 1 0.516699 0.178323 0.0378657 6.89441 -3.27331 0.0904614 0.0706133 0.0698376
1885 1 0.529162 0.15312 0.0207897 2.8772 -3.27801 0.12442 0.338056 0.0217285
1886 1 0.551462 0.180036 0.0223408 1.27101 -3.29971 -0.0542694 -0.289363 -0.11587
291 1 0.617235 0.159487 0.00551274 0.239475 -3.34435 0.00600206 0.247505 -0.0159259
292 1 0.585846 0.181707 0.00344272 0.181904 -3.33512 0.0827887 -0.0275482 -0.171668
1889 1 0.583214 0.158404 0.0237321 6.28811 -3.28552 -0.345951 0.0127299 -0.0153088
1890 1 0.611473 0.181311 0.0286328 2.532 -3.27706 0.075534 0.131906 -0.0148637
295 1 0.6755 0.162833 0.0110009 0.229691 -3.28261 -0.252872 0.0140086 -0.279091
296 1 0.645009 0.184653 0.00866493 0.285316 -3.34341 -0.0813599 -0.120486 -0.0943715
1893 1 0.643144 0.160959 0.0310929 6.5789 -3.29425 -0.132239 -0.0304774 -0.0104568
1894 1 0.667212 0.187164 0.0344856 9.11 -3.30212 0.232149 -0.307017 0.0450076
300 1 0.698652 0.16501 0.0347133 6.06175 -3.32945 0.30127 0.0572216 0.0882467
304 1 0.734501 0.164828 0.013965 0.186466 -3.33804 -0.131275 -0.0142184 0.262518
379 1 0.731317 0.18983 0.0341097 0.361652 -3.31482 -0.272971 -0.170714 -0.0929629
377 1 0.702793 0.187005 0.0128287 0.925034 -3.32703 0.157926 0.21831 0.0427411
308 1 0.793646 0.164518 0.0202829 0.299197 -3.37584 0.0826812 0.212397 -0.161129
1902 1 0.75938 0.166111 0.0377481 0.350603 -3.3183 0.370378 -0.228627 -0.0886079
383 1 0.764807 0.188906 0.0167682 0.181682 -3.34842 0.00725399 0.00359867 -0.217544
1985 1 0.790591 0.189211 0.0405371 0.230269 -3.34292 0.0294809 0.19003 -0.0470048
1906 1 0.820432 0.165609 0.0446952 0.298944 -3.34932 -0.166213 -0.0383695 -0.129154
312 1 0.852598 0.16539 0.0258558 0.0291888 -3.32718 -0.010072 0.0608343 -0.0100029
387 1 0.823565 0.189838 0.0230726 0.125449 -3.35705 -0.0540936 -0.0569147 -0.0497354
1989 1 0.848991 0.18992 0.0476316 0.142326 -3.34645 -0.179538 -0.0850962 -0.0365463
389 1 0.856099 0.189846 0.00447381 0.114525 -3.33406 0.0491389 -0.162872 0.0170502
306 1 0.827602 0.166282 0.00199777 0.33282 -3.35116 -0.0659611 -0.244329 -0.229419
310 1 0.885412 0.16595 0.00776444 0.116742 -3.35392 -0.0173753 -0.117665 -0.098201
316 1 0.91111 0.165214 0.0317379 0.104522 -3.33928 -0.0570134 -0.0339919 0.168878
391 1 0.881413 0.189276 0.0290094 0.110664 -3.33431 -0.0112863 0.0316389 -0.100337
393 1 0.916326 0.189144 0.0107897 0.305593 -3.34122 -0.170693 0.0546988 -0.0748013
314 1 0.945109 0.164713 0.0141342 0.195077 -3.33595 -0.0653574 0.203738 -0.184802
320 1 0.969382 0.164555 0.0382754 0.165482 -3.33424 -0.0592426 0.209427 0.270746
395 1 0.939368 0.188694 0.0355037 0.163397 -3.33861 0.116978 0.116874 0.0327959
397 1 0.972559 0.189473 0.0172313 0.132425 -3.36456 0.0582471 0.0305395 -0.17215
324 1 0.0273441 0.214353 0.0445907 0.0721466 -3.33167 -0.0679817 -0.0964841 0.117361
401 1 0.0313536 0.237691 0.0238423 7.85809 -3.29852 0.150896 0.102503 -0.268061
398 1 0.00139591 0.214112 0.0203001 0.215437 -3.3466 0.0769769 -0.0438597 -0.112162
30724 1 0.0359916 0.21465 0.00200094 5.22825 -3.2931 -0.0543148 -0.128123 0.041236
322 1 0.0612094 0.214821 0.0275225 4.9225 -3.29135 -0.0303631 -0.0834442 -0.0544331
326 1 0.120369 0.213981 0.0345533 9.97093 -3.29801 -0.0970608 -0.00664128 0.0112671
405 1 0.0744174 0.245311 0.0220634 14.0796 -3.29641 0.0532641 -0.107635 0.235185
409 1 0.108584 0.245434 0.00525357 4.95102 -3.26739 -0.045722 0.0208897 0.0247059
30728 1 0.0950617 0.215446 0.011505 9.57619 -3.32423 -0.0082322 0.081674 -0.186601
336 1 0.160966 0.221571 0.0320417 7.2787 -3.23156 0.29472 0.22413 -0.0956872
330 1 0.137353 0.222031 0.00729999 7.16829 -3.26127 0.0118858 -0.0405378 0.0253318
411 1 0.132747 0.244104 0.030044 7.1077 -3.25019 -0.170023 0.373535 -0.202763
339 1 0.206773 0.208243 0.00681992 9.91892 -3.31833 0.182314 0.120395 0.0537176
340 1 0.201885 0.23021 0.0288722 8.90311 -3.33336 0.181879 -0.0124688 -0.00193195
344 1 0.238416 0.231902 0.0121072 0.330242 -3.30495 -0.225663 0.21218 -0.215968
1941 1 0.233114 0.207681 0.0313751 7.1479 -3.34654 -0.122311 -0.0198769 0.104753
343 1 0.267762 0.209993 0.014475 0.181787 -3.32654 0.150874 -0.181117 -0.141799
348 1 0.297387 0.233853 0.0191475 0.172935 -3.33975 0.102803 -0.283175 -0.252484
1942 1 0.263488 0.232922 0.0363895 0.283443 -3.3126 0.0780552 -0.24677 0.134873
1945 1 0.292011 0.209155 0.0393442 0.0987317 -3.34943 0.122826 0.039942 -0.0424148
347 1 0.327162 0.210178 0.0215058 0.0958236 -3.36026 -0.0595716 -0.154645 -0.0927938
349 1 0.363285 0.210796 0.00345208 0.301987 -3.36657 -0.238456 -0.0712649 -0.0978128
352 1 0.356518 0.232495 0.0263341 0.346479 -3.33164 0.284787 0.231142 -0.0854851
1949 1 0.353633 0.209474 0.0466336 0.303364 -3.34191 -0.224928 -0.180028 0.0674
1946 1 0.322699 0.232245 0.0447554 0.264609 -3.33578 0.115364 0.0769196 -0.249488
355 1 0.422645 0.211065 0.0111279 0.36408 -3.33184 -0.485098 0.00322491 -0.0869603
351 1 0.387955 0.209918 0.0287204 0.172595 -3.33855 -0.15547 0.086239 -0.112444
356 1 0.391293 0.234896 0.00816131 0.139116 -3.36588 0.0693397 -0.110929 0.0592592
1954 1 0.416223 0.233389 0.0333824 0.171844 -3.34031 -0.0533255 0.29504 0.016629
360 1 0.449575 0.235484 0.0156589 0.0837924 -3.3184 0.0307636 0.105575 -0.0721051
359 1 0.479327 0.211692 0.0187849 7.74816 -3.33562 0.0886209 0.088177 0.123317
1957 1 0.445959 0.210769 0.0363032 0.171448 -3.31185 -0.0610904 -0.0930927 0.0168506
1958 1 0.474751 0.235085 0.0405833 0.128863 -3.3611 0.0597162 -0.0641785 0.059945
1961 1 0.503709 0.209947 0.0449672 7.91434 -3.32271 0.0626735 0.212459 -0.0626084
364 1 0.509875 0.235177 0.0237192 7.19376 -3.33204 -0.299276 -0.208459 0.237133
363 1 0.520226 0.203486 0.0182942 7.68473 -3.32763 -0.129862 -0.165543 -0.157088
368 1 0.550237 0.224688 0.0235013 6.47204 -3.32575 0.0542987 0.391817 -0.155016
1965 1 0.543587 0.201344 0.0441541 6.87604 -3.28002 0.271857 0.0336304 0.117182
371 1 0.614032 0.205691 0.00625355 0.173123 -3.30777 0.166508 -0.278292 -0.0631528
372 1 0.584559 0.226633 0.00398395 0.193254 -3.28127 -0.404549 0.111427 -0.0121161
1969 1 0.579743 0.202506 0.0261875 1.18371 -3.24964 0.315699 0.186339 -0.168052
1970 1 0.606975 0.226836 0.0284545 6.89939 -3.21908 -0.0429946 0.0762351 0.2917
447 1 0.579035 0.248543 0.0274586 7.59104 -3.28765 -0.1684 -0.149918 -0.010434
451 1 0.611412 0.250972 0.00729963 5.96243 -3.24848 0.211924 -0.218586 0.0523801
375 1 0.672872 0.209317 0.0101941 5.53547 -3.33507 -0.0236515 0.0785392 0.241912
376 1 0.642372 0.230056 0.00864766 6.04475 -3.33598 -0.158531 -0.110477 0.0244735
1973 1 0.636074 0.20663 0.0317534 10.4393 -3.25412 0.0627899 -0.0377022 0.00400663
1974 1 0.668997 0.217455 0.045478 5.65405 -3.28497 0.0945493 -0.0494435 0.0637654
455 1 0.674441 0.241352 0.0232004 6.61845 -3.28091 0.179935 -0.396072 -0.0105402
2053 1 0.639714 0.241534 0.0387112 6.15474 -3.2888 -0.0786165 -0.132892 0.0267749
380 1 0.70242 0.214396 0.0296684 1.63048 -3.30475 -0.109554 -0.0310234 -0.0447289
378 1 0.734501 0.212733 0.0122074 0.466747 -3.32358 0.159346 0.0206679 0.0486733
459 1 0.730653 0.238106 0.0322819 0.668911 -3.30126 0.074011 0.0454825 -0.121004
457 1 0.70745 0.238573 0.00706674 6.53901 -3.29295 -0.102815 -0.194393 0.000561901
2057 1 0.698521 0.239004 0.0496957 0.460578 -3.29259 -0.341231 0.307572 -0.0487096
384 1 0.759129 0.21288 0.0367728 0.340534 -3.31261 0.484194 0.361348 -0.181854
388 1 0.794091 0.212972 0.0180217 0.261193 -3.3637 -0.125663 0.173059 0.371919
463 1 0.788677 0.237286 0.039408 0.247411 -3.35101 0.0475808 0.214543 -0.209437
461 1 0.763762 0.236634 0.0156295 1.30653 -3.35082 0.0434847 0.10606 -0.28156
392 1 0.85218 0.213917 0.0257312 0.0821246 -3.34456 0.019162 -0.1034 -0.124821
467 1 0.823658 0.237533 0.0217792 0.273165 -3.35618 -0.391154 -0.0284991 -0.161035
1986 1 0.818828 0.214476 0.0436407 0.0878956 -3.35218 0.0415675 -0.102607 -0.146105
2069 1 0.848257 0.238261 0.0461124 0.129403 -3.33918 -0.0557422 -0.073316 0.0579977
469 1 0.855899 0.236529 0.00289928 0.124125 -3.37316 0.134574 0.128124 -0.102081
390 1 0.88531 0.212272 0.00705704 0.302696 -3.35027 0.0660119 0.291456 -0.0502565
396 1 0.910279 0.213275 0.0313558 0.13152 -3.36443 0.0515792 0.0983438 0.0419211
471 1 0.881428 0.237479 0.027801 0.156894 -3.35493 -0.125322 -0.0782752 -0.170186
473 1 0.912685 0.237784 0.00784185 0.623627 -3.35198 0.302015 -0.104146 0.270302
394 1 0.943796 0.214002 0.0133055 0.176992 -3.35351 0.0456093 -0.117097 -0.0936247
400 1 0.96841 0.212543 0.0384401 0.318991 -3.33444 0.0393479 0.223251 -0.167036
475 1 0.939821 0.237429 0.0332463 0.0714393 -3.34871 -0.197683 -0.00511794 0.124587
479 1 0.997385 0.237931 0.0410012 0.180373 -3.32477 0.095435 -0.108319 -0.194159
477 1 0.972822 0.237825 0.0156558 0.120675 -3.31997 0.240208 -0.205795 -0.0747957
404 1 0.0273822 0.261436 0.0438974 4.59915 -3.28461 0.168131 0.0690203 0.228515
402 1 0.0446492 0.270561 0.0188167 10.6887 -3.32335 -0.145722 -0.0112683 -0.0307163
481 1 0.0154502 0.295522 0.0136891 10.2224 -3.34028 -0.0650088 -0.254668 -0.0251186
478 1 0.00351573 0.262211 0.0183117 8.16024 -3.31878 0.13453 -0.166669 -0.0346278
412 1 0.103981 0.268717 0.0259547 5.19649 -3.26365 0.0822745 -0.146057 0.12811
406 1 0.0784276 0.269148 0.00267572 7.52436 -3.25452 0.119792 -0.0220224 -0.351683
487 1 0.0760373 0.293397 0.0218186 5.51256 -3.25487 -0.176712 0.0346367 0.0703458
415 1 0.174208 0.253358 0.0271521 10.3586 -3.32263 -0.0430946 0.0659161 -0.135935
416 1 0.144297 0.277223 0.0240272 7.28402 -3.32358 0.243846 -0.115275 0.0951751
413 1 0.14958 0.252818 0.00331438 9.39906 -3.31155 0.108441 0.194509 -0.0177341
420 1 0.179547 0.278011 0.00725811 0.113356 -3.3269 0.100807 -0.143932 -0.0304604
419 1 0.209085 0.254766 0.00918979 6.82016 -3.30862 -0.0954385 0.0564283 0.0648363