ITEM: TIMESTEP
15500
ITEM: NUMBER OF ATOMS
32000
ITEM: BOX BOUNDS pp pp pp
6.2743582213489404e+00 7.4725641778645908e+01
-2.4219109369717842e+00 8.3421910936966185e+01
-5.1166394369172608e+00 8.6116639436913431e+01
ITEM: ATOMS id type xs ys zs c_csym c_peratom fx fy fz
4 1 0.0235671 0.0272922 0.0408925 5.70615 -3.33283 0.120742 0.223982 0.261586
2 1 0.0389541 0.0218114 0.00581557 5.19539 -3.26689 -0.0375272 -0.0854284 0.00823525
8 1 0.0613998 0.0235354 0.0290655 1.61468 -3.26124 0.26329 0.0675171 0.403221
12 1 0.093737 0.02222 0.0101866 0.1536 -3.32897 0.042025 -0.0576738 0.142235
1610 1 0.117519 0.02265 0.0341218 0.161938 -3.33359 0.0842472 0.0264242 0.0809472
1689 1 0.0911356 0.0485291 0.0311954 1.91384 -3.32338 -0.504415 -0.266446 -0.413513
87 1 0.0646385 0.0466428 0.00783197 5.99374 -3.31665 0.165884 0.150351 0.0210085
91 1 0.122274 0.0466133 0.0110477 0.167296 -3.33647 -0.191802 -0.053366 -0.014554
16 1 0.149958 0.0221743 0.0157905 0.246808 -3.34669 0.000719439 -0.0412832 -0.143872
1614 1 0.173347 0.024285 0.0400527 0.377545 -3.30503 0.381689 -0.278189 -0.212455
95 1 0.17769 0.0468472 0.0171069 0.139818 -3.34557 0.0301356 0.133367 0.103292
1693 1 0.145177 0.0481057 0.0354271 0.115918 -3.32442 0.119193 0.0441171 0.123266
20 1 0.204988 0.0232787 0.0204328 0.154539 -3.33861 0.216766 -0.0958359 0.161218
1618 1 0.229959 0.0236878 0.0444569 0.139899 -3.36117 0.173507 -0.119212 0.00267639
99 1 0.233562 0.0474954 0.0217193 0.321057 -3.32751 0.434022 -0.153547 0.189636
1697 1 0.201697 0.0476345 0.0426494 0.421006 -3.33659 0.0608184 0.127594 -0.236261
18 1 0.236978 0.0232669 0.000805791 0.34727 -3.33204 0.207296 0.147798 -0.0592101
24 1 0.262132 0.023085 0.0244235 0.246078 -3.34408 0.0756097 0.184546 0.146143
103 1 0.292274 0.0486019 0.02601 6.59866 -3.29865 0.227105 -0.0576948 0.230551
101 1 0.26833 0.0477655 0.00219709 7.42262 -3.33109 -0.134048 0.0966944 -0.148255
22 1 0.296122 0.0253966 0.00521734 6.2057 -3.29024 -0.0905137 -0.24525 -0.242295
23 1 0.291386 1.00038 0.0265832 0.222038 -3.34106 0.0502422 -0.132454 0.172395
28 1 0.319847 0.0257155 0.0282911 6.25127 -3.30386 0.0312599 0.0338299 0.201278
32 1 0.359176 0.0335181 0.0227512 0.901053 -3.28724 0.0281074 -0.0783402 0.0762375
26 1 0.337218 0.0323303 0.998375 0.949572 -3.28155 -0.0988004 -0.00069027 0.0923006
25 1 0.32319 0.00156459 0.00633726 6.50284 -3.23752 -0.0415352 0.106072 0.266341
27 1 0.345511 0.00265497 0.0305371 5.75035 -3.26298 0.0802895 -0.136751 -0.0240573
31 1 0.384644 0.00894044 0.0250416 2.34196 -3.26581 -0.286636 -0.103037 0.0516087
36 1 0.397684 0.038592 0.0187855 7.41061 -3.25433 0.0728682 -0.0647254 -0.301033
35 1 0.423025 0.0127445 0.0202533 7.68879 -3.17021 0.0273464 0.186183 -0.00646777
1634 1 0.424239 0.0371138 0.0410066 5.90711 -3.33083 0.00257317 0.263066 0.0418516
1633 1 0.408346 0.00767891 0.0489542 0.477567 -3.26416 0.113212 -0.162985 0.0122669
40 1 0.446974 0.034497 0.0130117 6.80616 -3.1766 -0.0846444 -0.230353 0.0119221
39 1 0.474468 0.010699 0.0178326 1.00924 -3.29913 0.00789797 0.14897 -0.250674
1637 1 0.447797 0.0109056 0.0428691 5.24137 -3.26788 0.366429 0.141992 -0.0474242
1638 1 0.47253 0.0350993 0.0379903 6.66576 -3.25169 -0.00359897 -0.479783 0.260346
1641 1 0.500814 0.0104291 0.0412354 0.911285 -3.30852 -0.0868726 0.0627932 0.147024
44 1 0.504367 0.0337995 0.0187307 1.58545 -3.25894 -0.0543286 -0.0063388 -0.0890093
43 1 0.529448 0.00844641 0.0199939 6.14841 -3.31658 0.222432 -0.00552827 -0.1322
48 1 0.556521 0.0323491 0.0223614 9.51847 -3.29046 0.0245532 -0.157878 -0.236157
1642 1 0.530541 0.0335335 0.0446371 0.915706 -3.24553 -0.255663 -0.176952 0.03877
1645 1 0.555521 0.00871705 0.0448435 5.98585 -3.26468 -0.0921253 0.246937 0.0165312
52 1 0.594106 0.0292297 0.0135889 1.76295 -3.28855 -0.194575 -0.144911 0.318507
1650 1 0.618523 0.0316614 0.037998 6.30652 -3.20639 0.00482715 -0.35631 -0.0743449
47 1 0.569924 0.00193115 0.0156382 0.388006 -3.30394 -0.146549 -0.0364391 -0.258842
1649 1 0.595553 0.00339363 0.0382699 7.26882 -3.21715 0.22825 0.18311 0.095185
56 1 0.633973 0.0229103 0.0104027 7.49014 -3.29282 0.0528737 -0.332973 0.097468
135 1 0.659198 0.0465838 0.0129478 5.96454 -3.33946 0.304201 0.117077 -0.24762
1654 1 0.658312 0.0239209 0.0357462 7.18465 -3.33821 0.277159 0.0585361 0.15358
55 1 0.664813 0.000185299 0.0153501 0.405162 -3.29781 0.24168 0.0958353 0.0887158
1653 1 0.633806 0.998083 0.0359969 12.7532 -3.30898 0.00600595 -0.242186 0.165326
60 1 0.691292 0.0241595 0.0151004 0.32626 -3.30936 0.046216 -0.0675178 0.268685
1657 1 0.691808 0.0023511 0.042443 0.623633 -3.27704 -0.323152 -0.318699 -0.180222
59 1 0.722373 0.00103541 0.0211533 0.307235 -3.29642 0.0168524 -0.0451007 -0.0166546
64 1 0.7468 0.024915 0.0181013 0.518226 -3.27927 -0.167378 0.281637 0.278145
61 1 0.75074 0.000608016 0.997278 0.963758 -3.28223 0.00200374 0.0428254 0.15195
68 1 0.801181 0.0264789 0.0208771 2.52863 -3.24035 -0.0613842 -0.156767 -0.0414186
62 1 0.776161 0.0242262 0.99701 0.215998 -3.27988 0.127765 0.0448059 0.00835336
63 1 0.774864 0.00349029 0.0242221 6.85083 -3.23754 0.243945 -0.0808075 -0.0950612
72 1 0.856658 0.0258234 0.0249062 0.517248 -3.30643 -0.0304672 -0.120644 0.284034
67 1 0.826549 0.000902166 0.026159 2.84222 -3.36036 0.0244793 -0.115592 -0.0626807
1669 1 0.851686 0.000515856 0.0505361 3.39696 -3.35042 -0.0356878 0.115301 -0.0711469
69 1 0.859612 0.000146915 0.00480459 0.216573 -3.33129 -0.169593 0.169757 0.277191
71 1 0.884174 0.00155287 0.0302331 0.217416 -3.36867 -0.0368642 -0.000524017 0.0366569
76 1 0.912024 0.0264234 0.0307771 0.202797 -3.33506 0.169778 0.045449 0.132322
70 1 0.886593 0.0252055 0.00585662 0.218583 -3.28616 0.205259 -0.044697 0.0788501
73 1 0.916014 0.00210826 0.0103262 0.137653 -3.31611 0.225201 0.0627161 0.0643104
74 1 0.945293 0.02632 0.0117427 0.14609 -3.3466 0.0305047 0.176286 0.00902988
75 1 0.942685 0.00376761 0.0344504 0.430839 -3.33872 -0.0602822 -0.230739 0.0730621
80 1 0.971494 0.0272959 0.0376654 0.7382 -3.35374 -0.0508206 -0.0894729 -0.20964
78 1 0.00205959 0.0277964 0.0156371 6.75325 -3.3055 -0.24204 -0.267777 -0.00346528
77 1 0.974556 0.00271798 0.0139665 6.21409 -3.32681 -0.201945 0.0724131 -0.170221
79 1 0.998243 0.00114244 0.0377215 6.4461 -3.28498 -0.0301154 0.244183 0.23045
83 1 0.0527712 0.051796 0.0442731 2.18351 -3.36788 0.241552 -0.041121 -0.0131848
84 1 0.0256492 0.0764485 0.0417231 0.362309 -3.34288 -0.162203 -0.20246 0.0392874
82 1 0.0578411 0.0750357 0.0207657 2.3547 -3.30866 -0.0465007 -0.106044 0.167916
81 1 0.0275819 0.0526593 0.0191506 6.61567 -3.3177 0.124228 -0.157984 0.0147526
88 1 0.0842062 0.0735926 0.0489568 0.668773 -3.33685 -0.22391 0.0973981 -0.322004
92 1 0.0932073 0.0707365 0.00700945 1.20063 -3.29132 -0.0119764 -0.138868 0.174661
171 1 0.120996 0.0947448 0.00846083 0.662876 -3.30158 0.354524 0.279626 0.28126
1690 1 0.118064 0.0727223 0.0309349 0.358972 -3.31035 -0.170444 -0.00875471 0.0963065
96 1 0.149881 0.0706182 0.0122927 0.183983 -3.32306 0.121535 0.187378 0.115803
1694 1 0.173253 0.072743 0.0372784 0.157386 -3.37624 0.193032 -0.0926914 0.139269
175 1 0.177735 0.0953287 0.0145768 0.355243 -3.34063 0.214046 0.106381 0.381623
1773 1 0.145221 0.097075 0.0336084 0.310842 -3.32198 -0.0504312 -0.0332592 -0.164799
100 1 0.206826 0.0707346 0.0192392 0.285886 -3.31491 -0.066645 0.251864 0.131362
1777 1 0.202926 0.0959525 0.0399198 0.123023 -3.35327 0.0115438 0.0207191 0.152042
98 1 0.241664 0.0716331 -0.000887707 7.31107 -3.34583 0.0237809 -0.0450624 0.129449
179 1 0.236988 0.0950806 0.0220417 7.02678 -3.35257 0.228615 -0.0235583 -0.0964691
177 1 0.213363 0.0939752 0.997298 7.51757 -3.35024 -0.0124345 0.124039 -0.217167
1698 1 0.23186 0.0708271 0.0430852 0.235136 -3.34264 0.0629518 0.197601 0.151524
104 1 0.265846 0.0715909 0.0231843 7.02409 -3.34717 -0.140672 0.226576 0.224586
108 1 0.306864 0.0801288 0.0198978 0.0773966 -3.27355 -0.0234524 -0.0576032 -0.219287
105 1 0.309982 0.0557877 0.997592 0.211182 -3.33185 0.0136483 0.287106 -0.237777
107 1 0.333908 0.0576871 0.0215845 0.32146 -3.29972 0.0864148 -0.208028 -0.0327944
112 1 0.347629 0.0886932 0.0164645 6.90741 -3.31092 0.142931 -0.0121086 -0.161056
1710 1 0.371805 0.0874839 0.0411168 7.34921 -3.3328 0.288285 0.174631 0.0663363
1706 1 0.33059 0.0809051 0.0440461 0.315741 -3.2972 0.152537 -0.302411 0.330073
111 1 0.375344 0.0646291 0.0184864 8.0148 -3.28969 -0.000952311 0.211906 0.0310883
115 1 0.425348 0.0599335 0.016691 6.87785 -3.23359 0.0042658 0.312854 -0.0630215
1713 1 0.400981 0.0644796 0.042345 7.54812 -3.3453 -0.0401009 -0.163543 0.0849644
116 1 0.409325 0.0891339 0.0225805 7.47766 -3.3212 -0.0785601 0.0305552 0.186677
110 1 0.382431 0.0895179 0.998659 6.62809 -3.34344 0.079588 -0.0362122 -0.272166
119 1 0.473809 0.0560394 0.0135258 7.04295 -3.25184 0.121272 0.138412 -0.0800801
120 1 0.452552 0.0831081 0.0194547 0.60364 -3.2912 0.0394716 0.0220514 -0.129673
124 1 0.499796 0.0794585 0.0176283 9.12729 -3.30937 -0.0493269 -0.128821 -0.0622196
1717 1 0.452443 0.0608821 0.041512 6.40181 -3.20117 -0.565439 -0.264384 -0.0919621
1718 1 0.47799 0.0829216 0.0453293 0.634834 -3.24146 0.227434 0.27716 -0.0703328
1721 1 0.499946 0.0563372 0.0419913 5.42072 -3.27302 0.154037 0.0463962 0.0218221
123 1 0.531734 0.0566197 0.0222971 6.71764 -3.26745 0.0250363 0.22266 -0.188027
128 1 0.539567 0.0845576 0.0103506 6.86426 -3.28693 -0.101428 0.25918 -0.127899
1722 1 0.525405 0.0810059 0.0441627 8.17542 -3.31165 -0.0908087 -0.21976 0.223275
127 1 0.571601 0.0611624 0.0140191 8.77712 -3.27595 -0.100892 -0.0530496 0.082336
131 1 0.617265 0.0543795 0.013003 0.75202 -3.25839 -0.0411898 -0.0688875 0.104473
132 1 0.599202 0.0842189 0.01655 6.58322 -3.30966 -0.115713 0.0534311 -0.0788797
1726 1 0.562511 0.0846789 0.0348803 2.80964 -3.28046 0.180622 0.12421 -0.205365
1729 1 0.596182 0.0602533 0.0378957 7.7412 -3.22467 -0.0816397 0.243014 -0.236547
1730 1 0.62286 0.0846362 0.0404543 6.22477 -3.2967 -0.100797 -0.0393888 0.220404
136 1 0.643932 0.0772633 0.0149722 0.388464 -3.30852 0.106632 0.233151 0.121882
1733 1 0.641467 0.0556779 0.0390716 1.12727 -3.25167 0.32662 0.298098 0.163108
1734 1 0.670667 0.0781919 0.0407276 1.11288 -3.29329 -0.399187 0.094923 0.0431987
1737 1 0.68651 0.0483936 0.0370247 5.93284 -3.31585 -0.251652 -0.269319 -0.0658474
140 1 0.687245 0.0710269 0.0132659 6.09607 -3.34878 -0.195914 -0.170401 -0.339844
139 1 0.717847 0.0475974 0.0138253 0.838728 -3.30494 -0.0235438 0.233238 0.475036
144 1 0.742157 0.073287 0.0155174 0.135524 -3.31829 -0.00265291 -0.090799 -0.0031998
219 1 0.712859 0.0963112 0.013232 6.74346 -3.30196 -0.343824 0.0845913 -0.246579
1738 1 0.711379 0.0726472 0.0380143 7.38687 -3.29183 0.383521 -0.0777136 0.108243
143 1 0.772548 0.0488395 0.0186994 0.316648 -3.28497 -0.150607 0.233882 -0.153326
148 1 0.798372 0.0747403 0.0184393 0.360021 -3.3112 -0.139647 -0.0852996 0.155137
145 1 0.80267 0.0483079 0.997053 0.268203 -3.3387 0.0329271 0.206614 0.190515
147 1 0.826904 0.0508439 0.0220419 0.159962 -3.27953 0.0572543 -0.0644758 -0.167905
152 1 0.852766 0.0741527 0.0243538 0.246217 -3.34689 0.437921 0.129447 -0.0752187
1746 1 0.821083 0.0763528 0.0440683 0.576203 -3.32793 0.104889 -0.106993 0.134798
149 1 0.85869 0.0488719 0.00285984 0.145804 -3.33998 0.0123826 0.263159 -0.057657
229 1 0.85658 0.0968436 9.15397e-05 0.328007 -3.37121 0.209926 0.00167561 0.25166
1749 1 0.851707 0.0514489 0.0470307 0.264058 -3.3277 0.241308 -0.029892 -0.0343409
146 1 0.829485 0.072846 0.998949 0.0938929 -3.32976 0.147959 0.0225798 -0.0351655
151 1 0.884202 0.0502038 0.027525 0.202847 -3.33598 -0.288603 0.0274106 0.288555
155 1 0.94205 0.050674 0.0333639 0.412488 -3.36772 -0.2901 -0.0871013 -0.0872183
156 1 0.910828 0.0740412 0.0306042 0.182073 -3.34006 0.131438 0.0294135 -0.127355
150 1 0.886212 0.073177 0.00482434 0.101103 -3.34413 -0.322626 -0.0625068 -0.0865161
153 1 0.91444 0.0499364 0.0083267 0.209977 -3.3485 0.398557 -0.0907797 -0.0574243
233 1 0.913195 0.0962252 0.00675336 0.297878 -3.34079 0.284684 0.347168 0.0628786
154 1 0.943026 0.0737087 0.00992948 0.118866 -3.35109 -0.03162 -0.0871277 0.111154
159 1 0.996427 0.0523596 0.0398522 0.323756 -3.33348 0.118691 0.0653981 -0.144714
160 1 0.967224 0.0757298 0.0356539 0.137918 -3.34059 0.272766 -0.0398172 -0.0658494
157 1 0.974095 0.0506985 0.0135501 0.347706 -3.34184 -0.217588 0.146501 -0.0291491
158 1 0.999712 0.0760646 0.0162498 0.388011 -3.34111 -0.0812576 -0.126829 -0.099199
237 1 0.969183 0.0984968 0.011569 0.30254 -3.33603 0.255627 0.0436865 0.0774471
161 1 0.0288449 0.097664 0.0176909 0.277402 -3.33199 -0.0607701 0.310919 -0.0663648
163 1 0.0558648 0.0977093 0.0426475 0.837933 -3.3192 -0.395867 0.0376742 0.241214
164 1 0.0244161 0.121756 0.0395995 0.149515 -3.32923 0.036256 -0.204122 -0.158147
162 1 0.0571123 0.121452 0.0181053 0.392755 -3.33893 -0.0371432 -0.0821456 0.330821
243 1 0.0513389 0.144899 0.0406516 0.322452 -3.33739 0.219276 0.0773859 0.225357
241 1 0.0267646 0.144536 0.0159808 0.187494 -3.36581 -0.0825859 0.213464 0.0919018
168 1 0.0814117 0.121482 0.0446139 0.20889 -3.32464 -0.125042 0.0678768 0.211383
167 1 0.0867761 0.0969584 0.0234532 0.657665 -3.33358 0.00272002 0.234405 0.125015
172 1 0.113338 0.121526 0.0270316 0.392817 -3.33877 0.13682 -0.129495 -0.184495
247 1 0.107795 0.14543 0.0480259 0.274395 -3.34012 0.128724 -0.0230989 0.0649254
249 1 0.11715 0.145235 0.0024698 1.56825 -3.341 0.339705 -0.0231271 0.0355097
245 1 0.0845689 0.145604 0.0212672 0.246184 -3.32043 -0.105532 -0.260985 0.279924
1769 1 0.111218 0.0972174 0.0508225 0.194962 -3.33809 -0.134961 0.24509 -0.193313
176 1 0.148276 0.119712 0.0113474 0.607067 -3.32561 0.202885 -0.0752274 -0.0656746
255 1 0.178014 0.14321 0.0139581 5.94041 -3.33246 0.126753 -0.113944 0.202072
251 1 0.141894 0.144316 0.0299138 0.25943 -3.31824 0.0425703 0.0934387 -0.0116649
1774 1 0.173313 0.120559 0.0366243 0.309675 -3.33065 0.0859596 0.000372034 -0.276919
180 1 0.208663 0.118334 0.0183782 7.29356 -3.33898 -0.095639 0.14891 0.118782
259 1 0.225039 0.148228 0.0143878 1.11247 -3.30023 -0.0672989 0.0522153 -0.182394
1778 1 0.232902 0.120214 0.0441508 6.88332 -3.33182 -0.00797508 -0.170043 -0.19959
1857 1 0.203381 0.143501 0.0390695 6.18521 -3.32605 -0.228537 0.0941645 -0.0781278
184 1 0.252584 0.125432 0.0167817 0.504838 -3.31567 -0.0806838 -0.0228239 -0.0252407
183 1 0.281413 0.103168 0.0169765 0.512379 -3.28541 -0.363644 0.178172 -0.0817415
188 1 0.293221 0.135271 0.0128861 6.85508 -3.30722 0.197292 0.00704975 0.0525299
1782 1 0.278357 0.127519 0.0403706 0.521229 -3.28034 -0.130785 -0.00774687 0.149053
1785 1 0.303735 0.10383 0.041645 0.304394 -3.28762 0.132691 -0.00448942 0.290116
1861 1 0.250149 0.149244 0.0390117 1.32815 -3.27816 0.320325 0.0637356 0.0187398
1789 1 0.345173 0.111595 0.0384946 6.6864 -3.33966 0.175689 0.226727 0.33379
187 1 0.321731 0.112735 0.0133063 6.59439 -3.32435 -0.116288 -0.170198 0.00719272
192 1 0.353394 0.137864 0.0207725 0.28788 -3.33546 0.0384631 0.096315 0.0420189
1786 1 0.318351 0.136086 0.0378017 7.62192 -3.34232 0.153685 0.0116069 -0.10011
195 1 0.437415 0.113521 0.0279262 6.74826 -3.31587 -0.0743303 -0.15851 0.0811307
191 1 0.380974 0.113343 0.0218286 0.362483 -3.3022 -0.0220808 -0.0193747 0.331643
196 1 0.411145 0.138146 0.0276118 0.404802 -3.29429 -0.14072 -0.00865523 0.113456
193 1 0.411668 0.112664 0.00195234 6.65367 -3.31151 0.0838382 0.312072 -0.232778
190 1 0.388025 0.138792 0.00299398 2.57018 -3.32135 -0.0270861 0.106512 -0.178312
1790 1 0.377606 0.136943 0.0456092 0.139988 -3.33958 0.0349361 -0.0771649 0.0934251
194 1 0.440341 0.137629 0.00770539 7.41329 -3.31729 -0.137535 0.00564884 -0.337104
199 1 0.477212 0.107106 0.024475 5.75841 -3.32408 0.144703 0.100673 -0.0262705
200 1 0.464801 0.137877 0.0332403 6.76432 -3.30901 0.065202 -0.124507 -0.0160618
204 1 0.478757 0.13031 0.00207602 6.51884 -3.3234 0.263998 -0.0366526 -0.111355
203 1 0.510226 0.107898 0.00605039 5.01552 -3.30879 0.0254041 0.0335471 -0.155894
1805 1 0.5347 0.109358 0.0309749 3.40347 -3.27581 -0.166769 -0.256289 -0.325103
208 1 0.537105 0.131726 0.00755137 0.160287 -3.33643 0.142994 -0.229031 -0.198048
1802 1 0.503902 0.131426 0.0268571 6.17157 -3.33045 -0.0263064 0.00222831 0.120428
1806 1 0.561147 0.132624 0.0332323 0.258768 -3.32277 0.248438 -0.0937972 -0.0581424
207 1 0.568267 0.107661 0.0126737 0.237226 -3.33911 -0.128402 0.169071 -0.128905
212 1 0.595341 0.13165 0.014418 0.167068 -3.32758 -0.332302 0.00970666 -0.141291
211 1 0.625545 0.108648 0.0194026 7.19082 -3.29177 -0.0684773 -0.322274 -0.0593124
1809 1 0.590581 0.10821 0.0387988 0.656652 -3.33085 0.00293193 0.0229258 -0.381222
1810 1 0.618782 0.132101 0.0398425 0.42614 -3.32727 0.132992 -0.165987 0.293719
215 1 0.670989 0.101068 0.0170087 0.57338 -3.31416 -0.183075 -0.060712 -0.186188
216 1 0.651674 0.131184 0.0204678 6.4393 -3.30357 0.210514 0.139065 0.215421
220 1 0.692538 0.12698 0.0189391 1.70342 -3.24754 0.115122 -0.515361 0.172183
224 1 0.737108 0.123572 0.0149908 6.102 -3.36687 0.0600749 0.00147333 0.111902
1821 1 0.736059 0.0982744 0.036545 7.64055 -3.24955 0.290433 -0.14439 0.121809
1817 1 0.697027 0.102182 0.0425328 1.44808 -3.27996 -0.373126 0.16683 0.208744
1818 1 0.720942 0.12669 0.0458467 6.39456 -3.25054 -0.340491 0.155417 0.136981
223 1 0.767571 0.0992059 0.0171071 0.340645 -3.35306 0.0837284 0.0366545 -0.142468
228 1 0.796466 0.123093 0.018991 0.315005 -3.36472 -0.212747 -0.179683 -0.259497
1822 1 0.760885 0.126051 0.0392001 3.64901 -3.33288 0.232903 -0.257579 0.000362077
1825 1 0.792516 0.100843 0.0411919 0.683674 -3.2851 0.194936 -0.0595863 -0.205028
227 1 0.82519 0.0979174 0.0207706 0.148717 -3.30712 -0.0790708 0.184757 -0.00760922
232 1 0.852478 0.121315 0.0231559 0.145157 -3.34111 0.0638336 0.00878081 -0.0565659
1826 1 0.821257 0.123389 0.0435941 0.302723 -3.33527 -0.181238 0.0660962 0.0974875
1829 1 0.848953 0.0995838 0.04599 0.225563 -3.32095 0.120209 -0.259294 0.115863
235 1 0.938895 0.0985304 0.0316201 0.11213 -3.34366 -0.318556 0.0474488 0.00575514
231 1 0.881645 0.0973439 0.0261794 0.135923 -3.36859 -0.124199 0.120638 0.079056
236 1 0.908845 0.122122 0.0285262 0.0747548 -3.34769 0.0640938 -0.175441 0.0596922
230 1 0.885619 0.121001 0.00404989 0.274032 -3.34235 -0.222264 -0.135726 -0.23223
311 1 0.879222 0.145235 0.0251169 0.458333 -3.31925 0.193326 0.240404 -0.0231035
313 1 0.911457 0.145788 0.00605403 0.196291 -3.31962 0.145138 -0.0774127 -0.027295
1830 1 0.877269 0.121808 0.0490609 0.258808 -3.30768 -0.0369087 0.086318 -0.152493
234 1 0.940134 0.122733 0.00874156 0.280668 -3.3479 -0.0460745 -0.32634 -0.0944768
239 1 0.996099 0.0996613 0.0380548 0.262694 -3.35158 -0.22317 -0.160906 -0.0923676
240 1 0.966081 0.122291 0.0332217 0.248887 -3.32465 0.0139898 -0.0274964 0.266586
238 1 0.997973 0.12143 0.0139957 0.164459 -3.36034 0.235078 -0.0746188 -0.0655611
315 1 0.936993 0.145722 0.0307207 0.107028 -3.34682 -0.113496 0.201296 0.105617
317 1 0.968747 0.145667 0.0111318 0.0471842 -3.30819 -0.020738 -0.0139656 0.0794315
319 1 0.994437 0.144642 0.0362534 0.325094 -3.35056 0.0671813 0.339464 -0.0554997
244 1 0.0224503 0.169882 0.0388112 0.155134 -3.36606 0.0117443 -0.216749 -0.0216626
242 1 0.0551095 0.168701 0.0188615 0.170133 -3.3527 -0.215119 0.117894 -0.017227
321 1 0.0257638 0.193483 0.016725 0.214104 -3.34561 -0.186461 -0.299877 -0.0800561
323 1 0.0509377 0.192375 0.0421319 0.149125 -3.32122 -0.22702 0.218355 -0.0465765
248 1 0.0781771 0.16891 0.0446432 0.37089 -3.32378 0.415675 -0.209676 -0.0319305
246 1 0.112197 0.168162 0.0248772 0.371429 -3.33637 0.00550167 0.233151 0.211102
327 1 0.108022 0.192447 0.0481653 0.0979608 -3.33576 0.0239683 -0.0956808 0.147073
325 1 0.0832933 0.192768 0.023602 0.406351 -3.34114 -0.061864 -0.00399552 -0.365133
30727 1 0.113666 0.193097 0.00262743 0.452504 -3.33545 0.0827324 0.0607045 0.305573
256 1 0.16948 0.168521 0.0329856 0.606804 -3.31664 -0.0652852 0.126807 0.112978
250 1 0.145541 0.168385 0.00771913 0.987453 -3.33426 -0.168567 0.0215651 -0.142543
329 1 0.13879 0.193379 0.0291193 0.329489 -3.31225 0.0880769 -0.140727 -0.00351436
335 1 0.16867 0.194611 0.00953493 7.88792 -3.28605 0.31108 0.0831432 0.173189
260 1 0.197394 0.171314 0.0123317 5.76726 -3.28775 0.065024 0.0374948 -0.103601
264 1 0.236037 0.180721 0.00967581 7.93777 -3.33526 0.128554 0.175872 -0.0124506
1858 1 0.223483 0.171449 0.0377383 6.32005 -3.27986 -0.034987 0.12195 0.0377984
1937 1 0.19552 0.193935 0.0350212 7.5483 -3.307 -0.24646 0.279978 -0.0606554
263 1 0.264927 0.158096 0.0109696 7.07183 -3.32393 0.111199 0.0442514 0.275554
1862 1 0.263065 0.182029 0.0339626 7.51088 -3.34183 -0.195099 0.0487852 0.0746241
268 1 0.294791 0.18469 0.0154787 0.240458 -3.30308 0.195179 -0.137789 -0.149906
1865 1 0.291421 0.160212 0.0356777 7.42491 -3.34761 0.028418 -0.318168 0.0667728
267 1 0.325186 0.161908 0.0177668 0.296006 -3.32463 0.115388 -0.221723 0.121096
272 1 0.355617 0.18564 0.0222605 0.259483 -3.32942 -0.141821 -0.180602 -0.0886448
1869 1 0.349929 0.161115 0.0440201 0.429453 -3.31324 0.141743 -0.256505 -0.377253
1866 1 0.321784 0.184237 0.0386764 0.731331 -3.30873 -0.0834068 0.0886735 0.559794
269 1 0.359557 0.162363 -0.000415144 0.22187 -3.33869 -0.08949 -0.139695 0.139929
271 1 0.383751 0.161986 0.0252342 0.0811516 -3.33991 -0.13909 -0.0570972 -0.121236
273 1 0.417352 0.16423 0.00730247 5.40901 -3.31049 0.0447671 -0.275453 0.0304175
276 1 0.41244 0.186762 0.0299761 0.186948 -3.32195 -0.168724 -0.235196 0.0575451
270 1 0.388879 0.187165 0.00408168 0.247208 -3.31504 -0.217879 -0.198653 0.067816
275 1 0.439418 0.162152 0.0326615 0.334364 -3.31879 -0.0718542 0.153809 -0.0378328
280 1 0.446141 0.187623 0.011487 5.22986 -3.28932 0.0197015 -0.0714125 0.0608785
279 1 0.469036 0.160911 0.0109995 6.65613 -3.32638 -0.00495113 0.100288 -0.0709056
284 1 0.499494 0.183274 0.0144022 7.59862 -3.32506 -0.246528 0.213168 0.0901525
1881 1 0.493494 0.161273 0.0378191 6.88329 -3.32653 0.174523 -0.197885 0.125807
1878 1 0.468584 0.185167 0.0364106 0.378333 -3.30485 -0.098812 0.157872 0.0366756
283 1 0.507343 0.153913 0.00286929 6.07687 -3.3226 0.0928591 -0.0879086 0.130883
288 1 0.536513 0.177623 0.00494559 5.64198 -3.31185 -0.0141139 -0.0974254 -0.0907116
1882 1 0.525117 0.181376 0.0455769 1.33881 -3.29114 0.0808384 0.208656 -0.0720544
1885 1 0.531495 0.154742 0.02889 5.25112 -3.31886 -0.0567825 0.187746 -0.0684004
1886 1 0.559686 0.177951 0.0310521 0.601924 -3.32949 0.0867815 0.243671 -0.067479
287 1 0.56489 0.154944 0.00934113 0.0983571 -3.33985 0.0752305 -0.138637 0.0167797
291 1 0.622584 0.154422 0.0163241 0.254234 -3.31783 -0.0124642 0.373088 0.0559337
292 1 0.5922 0.178263 0.0118743 0.147274 -3.3527 0.00679045 -0.0242929 0.000167226
1889 1 0.590003 0.154778 0.0364371 0.264329 -3.34147 -0.0727758 0.201354 -0.145474
1890 1 0.61763 0.179108 0.0379914 0.212456 -3.34331 -0.195835 -0.173393 -0.0197631
295 1 0.67641 0.155403 0.0228335 5.92834 -3.27785 -0.38825 0.317778 -0.0411629
296 1 0.648889 0.178559 0.0182934 0.20863 -3.32676 -0.195938 -0.0273117 0.0223866
293 1 0.653202 0.154999 0.995465 6.84414 -3.34005 -0.158357 0.0439106 0.0249439
294 1 0.680593 0.177821 0.99862 5.6807 -3.3267 -0.19977 -0.0228766 0.101243
1901 1 0.737612 0.151999 0.0344415 6.19214 -3.17866 -0.119619 -0.0991614 0.0972567
300 1 0.704149 0.179525 0.0263168 2.15955 -3.2866 0.0255304 -0.181141 -0.132843
299 1 0.712963 0.151461 0.0125506 6.75817 -3.13386 0.117261 0.115676 0.00251452
304 1 0.739959 0.173774 0.0122747 1.55102 -3.29802 0.0798399 0.0644597 -0.131099
303 1 0.768983 0.1475 0.0143862 0.6874 -3.3218 -0.280618 -0.178601 0.00418866
1905 1 0.792288 0.146962 0.0397639 0.561219 -3.3466 0.173314 0.15952 0.191935
308 1 0.79692 0.170498 0.0153929 0.372735 -3.31715 0.000307614 0.107366 0.30613
1902 1 0.766324 0.172305 0.0358779 1.6242 -3.28208 -0.010839 0.325573 -0.0233534
383 1 0.767181 0.195747 0.0137017 0.636409 -3.33167 0.0857166 0.227104 -0.0630345
1985 1 0.79282 0.195843 0.0376165 0.209218 -3.34276 -0.0021523 0.211949 -0.0404286
1906 1 0.821795 0.171089 0.0412011 0.128095 -3.34555 -0.283525 -0.211401 -0.0408863
307 1 0.82549 0.14639 0.0201479 0.154429 -3.34897 -0.00379795 -0.0283935 0.0101798
312 1 0.852883 0.170487 0.0215238 0.12609 -3.33505 0.0762464 -0.0411371 -0.0863096
1909 1 0.85078 0.145919 0.0457635 0.633883 -3.3325 -0.302231 0.238597 -0.0334173
387 1 0.82439 0.194819 0.0181333 0.0962998 -3.34131 -0.121503 0.0171122 -0.0382051
1989 1 0.848903 0.194398 0.0432904 0.330876 -3.32829 -0.133937 0.49446 -0.0524395
1910 1 0.87672 0.171985 0.0465263 0.489582 -3.31227 0.0953971 -0.455775 0.217223
310 1 0.885108 0.169586 0.00270063 0.208212 -3.32695 -0.455819 0.0572108 0.0333401
316 1 0.908176 0.170691 0.0276411 0.101137 -3.3476 0.0540653 -0.152451 0.0684352
391 1 0.881545 0.195282 0.0240776 0.273961 -3.34611 -0.199149 -0.0784634 -0.167128
393 1 0.912755 0.194105 0.00444232 0.208753 -3.32328 -0.127721 -0.0404459 0.19931
314 1 0.939848 0.168894 0.00852202 0.203103 -3.33477 -0.000600122 0.145695 -0.0657069
320 1 0.965202 0.169782 0.0331099 0.0818162 -3.35607 -0.017821 -0.0415452 0.191054
318 1 0.996671 0.169301 0.0139993 0.0589287 -3.35152 0.215573 0.0629626 0.0993489
395 1 0.935784 0.194573 0.0305989 0.263524 -3.35104 -0.0844013 -0.0877905 -0.0540278
399 1 0.993698 0.193634 0.0365889 0.140083 -3.32717 -0.0599312 -0.179418 -0.143682
397 1 0.967194 0.193183 0.0114529 0.351839 -3.34196 0.274227 0.00404002 -0.229057
322 1 0.0526764 0.216096 0.0196775 0.252511 -3.33434 0.29431 0.164662 -0.00421343
324 1 0.0208337 0.217099 0.0390305 0.19131 -3.33707 0.178942 0.10237 -0.0726189
403 1 0.049606 0.240282 0.041801 0.453262 -3.32079 0.0717277 -0.221534 -0.140696
401 1 0.0254218 0.240476 0.014832 0.395228 -3.32862 -0.0719537 -0.219229 0.197625
328 1 0.0787397 0.216321 0.0455539 0.166765 -3.33366 -0.0928652 0.129092 -0.104751
326 1 0.110054 0.217308 0.0267026 0.431505 -3.321 -0.0731071 -0.0975704 -0.145163
405 1 0.0797525 0.240584 0.0214241 2.24809 -3.32824 0.164507 -0.236846 -0.164558
407 1 0.105784 0.241058 0.0478072 1.09393 -3.30637 -0.117426 -0.0503451 0.0654971
409 1 0.116297 0.242871 0.00737732 7.19323 -3.30121 -0.432699 0.111218 -0.0846632
336 1 0.168334 0.219632 0.0319076 6.52402 -3.30031 0.00156258 -0.338516 0.0332034
330 1 0.142353 0.218803 0.00884092 7.37356 -3.25652 0.105685 -0.219724 -0.0688467
411 1 0.138595 0.241497 0.0328578 8.03312 -3.27715 0.439406 0.189619 -0.0740595
339 1 0.208569 0.204124 0.00741601 10.7869 -3.29968 -0.232006 0.120895 0.0828229
340 1 0.205794 0.229141 0.0275063 9.60853 -3.25887 0.10685 -0.473579 0.19505
344 1 0.239134 0.230242 0.01151 0.422162 -3.29973 -0.129567 0.0292784 -0.00576817
1941 1 0.233734 0.204703 0.0323625 7.50179 -3.32714 0.108674 0.121857 -0.214398
343 1 0.265989 0.206574 0.0131126 0.130948 -3.33394 0.00608306 0.142277 0.0838686
348 1 0.296649 0.231311 0.0165518 0.379 -3.31962 -0.252946 -0.116223 0.334271
1942 1 0.264453 0.230935 0.0358966 0.30561 -3.30858 0.0300605 -0.100711 -0.00940762
1945 1 0.29242 0.208084 0.0375754 0.233494 -3.34118 0.152776 -0.132427 0.153838
347 1 0.325119 0.208231 0.0195116 0.0820354 -3.32114 -0.0540889 0.062073 -0.0478424
349 1 0.357883 0.209742 0.00163974 0.162667 -3.34259 0.218956 -0.174096 -0.174751
352 1 0.353965 0.232164 0.0237445 0.188666 -3.33586 0.142158 0.124852 0.224139
346 1 0.328726 0.232314 0.999195 0.0762138 -3.33013 0.145216 -0.0276341 -0.142136
1949 1 0.350385 0.208839 0.0446815 0.142292 -3.35725 0.0390289 -0.165055 0.19627
1946 1 0.321687 0.231864 0.0428755 0.0613433 -3.33853 -0.0573267 -0.176259 0.0631474
355 1 0.416421 0.210181 0.00899776 0.233452 -3.34059 0.229566 0.203775 -0.205079
351 1 0.382773 0.209759 0.0268263 0.146594 -3.34769 0.187335 -0.10224 0.146295
356 1 0.388106 0.233729 0.00639054 0.193538 -3.3418 -0.145534 -0.141893 -0.265643
1954 1 0.412524 0.233088 0.0311422 0.0881606 -3.31666 0.0769828 -0.130792 0.111793
360 1 0.446075 0.23462 0.0126075 0.288869 -3.35427 0.0747728 -0.278347 -0.00182144
359 1 0.474551 0.210008 0.0144396 2.38959 -3.32478 0.0507593 -0.164975 0.245022
1957 1 0.440336 0.209738 0.0343612 0.133745 -3.33837 0.25858 0.127866 -0.135628
364 1 0.504022 0.230489 0.0219319 2.69884 -3.26777 -0.11482 0.124213 -0.174724
1958 1 0.470017 0.231701 0.0387078 0.227965 -3.36424 0.0898328 0.141421 -0.0126338
1961 1 0.498505 0.205747 0.0412159 0.654803 -3.301 -0.275968 0.184769 0.125959
363 1 0.529855 0.203722 0.0239056 6.20856 -3.30628 0.22427 0.039914 0.0248669
368 1 0.559739 0.226385 0.0290096 0.522824 -3.3263 -0.0311609 0.381995 -0.196141
362 1 0.530531 0.225545 1.00045 6.70415 -3.28344 -0.216229 -0.0594977 -0.11072
367 1 0.562149 0.202805 0.00687643 0.600918 -3.32917 0.0655187 -0.207232 -0.110284
371 1 0.619346 0.201558 0.0124891 0.291332 -3.33708 -0.0162578 -0.0243354 0.273175
372 1 0.591039 0.224978 0.00911716 0.267913 -3.32644 -0.285298 0.124801 -0.037714
1969 1 0.586941 0.202395 0.0329841 0.258756 -3.29799 0.181806 -0.211994 -0.0978348
1970 1 0.614398 0.224517 0.0350117 0.713698 -3.25153 0.210927 -0.0547259 0.134774
375 1 0.67618 0.201441 0.0217646 0.17569 -3.32816 -0.133339 0.17777 -0.182949
376 1 0.647534 0.224726 0.0153946 0.329551 -3.30385 0.0376437 -0.414385 0.125216
374 1 0.679861 0.221876 0.996612 0.775915 -3.31112 -0.0144001 0.0547659 0.145103
1973 1 0.643438 0.203246 0.0403018 0.254861 -3.31431 0.0393643 -0.124338 -0.0642809
1974 1 0.670011 0.226577 0.0438347 0.62732 -3.35006 0.296667 -0.056964 0.0017847
380 1 0.704166 0.224241 0.0252827 0.238335 -3.31769 -0.165794 -0.0992233 -0.0967814
377 1 0.709184 0.199641 0.00210809 1.73235 -3.32709 -0.0450767 0.239835 0.0653389
379 1 0.732936 0.201145 0.0304902 1.07367 -3.28361 0.0280132 -0.232017 -0.215367
378 1 0.737469 0.221635 0.00756428 0.868182 -3.29842 -0.133099 -0.299935 -0.384777
459 1 0.731856 0.246582 0.0267534 0.361416 -3.30789 -0.0107524 0.175828 0.306014
384 1 0.761287 0.222542 0.0336173 0.41971 -3.3009 0.239336 -0.250687 -0.201898
388 1 0.794485 0.219539 0.0144368 0.1657 -3.34685 -0.157106 -0.123509 0.0950053
463 1 0.78882 0.244532 0.0356117 0.311148 -3.32298 0.254626 -0.0244305 -0.035909
461 1 0.764123 0.2438 0.00934747 0.251973 -3.31599 0.310456 0.22085 -0.125745