ITEM: TIMESTEP
15250
ITEM: NUMBER OF ATOMS
32000
ITEM: BOX BOUNDS pp pp pp
6.1730989261458378e+00 7.4826901073849001e+01
-2.4880214453205696e+00 8.3488021445314956e+01
-4.9615965169098075e+00 8.5961596516905715e+01
ITEM: ATOMS id type xs ys zs c_csym c_peratom fx fy fz
4 1 0.0230267 0.0277409 0.0368325 6.47843 -3.31133 0.109222 0.151992 -0.12553
2 1 0.0375141 0.0206729 0.00689761 7.34276 -3.34788 0.0631851 -0.0295704 -0.138735
8 1 0.0628046 0.0228484 0.0297929 5.64993 -3.29877 -0.2275 -0.192106 0.040669
12 1 0.0938709 0.0206096 0.0105639 0.363968 -3.3171 0.319705 0.168036 -0.0240466
1610 1 0.120155 0.0216534 0.0347138 0.0567891 -3.35417 0.0673138 -0.0201272 -0.054645
1689 1 0.0915705 0.0466145 0.0315661 6.01557 -3.34779 0.00292913 -0.0841949 0.224225
87 1 0.0646866 0.046198 0.00798165 6.30706 -3.3294 0.170537 -0.141043 0.287828
91 1 0.124504 0.0452451 0.0124527 0.218959 -3.31587 -0.121071 -0.101524 0.276115
16 1 0.152895 0.0206392 0.0161867 0.302396 -3.36546 -0.169863 -0.0126908 -0.254055
1614 1 0.177078 0.0213484 0.0402856 0.167128 -3.32995 -0.0680377 -0.0143361 -0.012334
95 1 0.180816 0.045203 0.0176074 0.208414 -3.3238 0.0481709 0.10823 -0.0279685
1693 1 0.14921 0.0463851 0.0366887 0.101674 -3.32566 -0.12059 -0.116674 0.00984695
20 1 0.208712 0.0216482 0.0208518 0.224068 -3.3047 -0.113064 -0.0422887 -0.0486274
1618 1 0.234507 0.0230782 0.0442502 0.425367 -3.32486 -0.186068 -0.23785 0.128649
99 1 0.23684 0.0468292 0.022535 0.321918 -3.34066 0.170504 0.127644 -0.159613
1697 1 0.205193 0.0457801 0.0408306 0.392129 -3.30025 -0.00314848 0.191522 0.37302
18 1 0.238172 0.022538 0.000915238 0.763041 -3.3297 0.241866 0.0406691 -0.0498736
24 1 0.264631 0.0236252 0.0243669 0.222139 -3.31319 -0.0863633 -0.110997 0.186769
103 1 0.294112 0.0497974 0.0265108 7.18549 -3.32963 0.0255377 -0.153837 0.0141011
101 1 0.268805 0.0500251 0.00264864 6.3244 -3.33758 0.26095 -0.450753 -0.0358879
22 1 0.294255 0.0253669 0.00597453 6.34344 -3.21907 0.074672 0.194349 0.128652
23 1 0.292948 0.998213 0.0269989 0.664537 -3.28092 -0.325534 0.41516 0.135859
28 1 0.318629 0.0262023 0.0298168 6.18933 -3.26592 -0.109257 -0.0635303 -0.0452331
32 1 0.359606 0.0355861 0.0256814 2.09113 -3.24383 -0.0639922 0.0472902 -0.204289
26 1 0.335284 0.0351281 0.00269709 7.67981 -3.27081 -0.218538 -0.00647968 0.0561997
25 1 0.31958 0.00275155 0.00586486 4.94818 -3.17111 0.112921 0.266601 -0.141503
27 1 0.344121 0.00404887 0.0283684 5.17393 -3.24452 0.175293 -0.312619 0.0327205
31 1 0.382335 0.0103164 0.0225831 6.01894 -3.27287 -0.0427655 -0.00466647 0.0205859
36 1 0.401173 0.0389488 0.0196596 5.90808 -3.2824 -0.070983 -0.05107 -0.321083
35 1 0.421443 0.0107009 0.0157835 6.47291 -3.15854 0.0655007 0.102643 0.221026
1634 1 0.428334 0.0386362 0.0411435 5.90517 -3.27183 -0.308217 -0.110715 -0.219962
1633 1 0.408575 0.00874456 0.0451879 0.925562 -3.32142 0.173586 -0.27527 0.123488
40 1 0.446999 0.0328385 0.0132899 5.54172 -3.19476 -0.522952 -0.0355172 0.155193
39 1 0.476898 0.00961626 0.0160057 0.703805 -3.25143 -0.151208 -0.0401021 0.214748
1637 1 0.44784 0.0104537 0.0378896 6.27422 -3.28345 -0.153742 -0.321564 0.189805
1638 1 0.470709 0.0344187 0.0373305 5.64193 -3.26624 0.176135 0.154956 0.0955301
1641 1 0.500819 0.0114853 0.0406644 0.597297 -3.32184 -0.000577239 -0.132203 0.0501022
44 1 0.503113 0.0341591 0.0182766 1.38372 -3.29634 0.00202231 0.100612 -0.184812
43 1 0.52981 0.0101055 0.0183916 5.72694 -3.29347 0.0691336 -0.155182 0.231321
48 1 0.554135 0.0338365 0.0230661 7.18 -3.27326 0.0855907 -0.0107912 -0.0961335
1642 1 0.527623 0.0353347 0.044928 1.18638 -3.2173 -0.229826 -0.221764 -0.0869248
1645 1 0.553943 0.0114963 0.0464983 6.21201 -3.30666 -0.0467696 -0.267069 -0.122791
52 1 0.593528 0.0295351 0.0192184 1.3869 -3.29635 -0.157367 0.0620336 0.079382
1650 1 0.618099 0.0334917 0.0441513 6.3091 -3.27466 0.0398728 0.194868 -0.0424507
47 1 0.570316 0.00383219 0.0182605 0.354126 -3.27275 -0.144294 -0.22573 0.0197163
1649 1 0.5974 0.00606269 0.0438456 5.47065 -3.23154 -0.0564394 -0.221447 -0.254303
56 1 0.633076 0.0221067 0.0166188 6.7919 -3.30505 0.0669907 0.111963 0.0029915
135 1 0.657807 0.0472715 0.0175704 6.16384 -3.32484 -0.0230356 -0.0811405 -0.268387
1654 1 0.6569 0.0248924 0.0430323 6.27615 -3.34458 0.204081 0.108321 -0.226742
55 1 0.663835 0.000828982 0.0222755 0.608397 -3.32157 -0.0176965 -0.0954828 -0.225573
1653 1 0.634721 0.996815 0.0449859 8.90109 -3.30738 -0.239973 0.186339 0.0347405
60 1 0.689168 0.025602 0.0207233 0.156529 -3.30438 -0.125905 0.0893739 0.133064
1657 1 0.68959 0.00447567 0.0467536 0.37578 -3.31131 -0.0783983 -0.0934386 -0.0268079
59 1 0.72001 0.00431091 0.0245514 0.145717 -3.29757 0.0847924 0.0346762 -0.0306437
64 1 0.746969 0.0276677 0.0240315 1.03439 -3.26649 -0.189228 -0.00553983 -0.00900605
61 1 0.749845 0.00589431 0.00201868 6.42634 -3.31764 0.0263006 -0.309564 -0.0838763
68 1 0.798419 0.0326194 0.0217935 6.76343 -3.22154 -0.0388727 -0.305979 0.0182489
62 1 0.773158 0.0304942 0.999157 1.607 -3.2518 0.0398166 -0.125745 -0.0937461
63 1 0.777714 0.00657055 0.0265657 6.04599 -3.26314 0.0263673 0.0553171 0.278927
72 1 0.853059 0.0285748 0.0248675 0.228839 -3.35956 -0.0851446 0.0124798 -0.130721
67 1 0.822656 0.00473463 0.0246313 2.22643 -3.35493 -0.00546769 0.00789233 -0.242763
1669 1 0.84774 0.00451439 0.0485231 4.29927 -3.32887 0.0320719 -0.208943 -0.280226
69 1 0.854894 0.00396138 0.00261896 0.138916 -3.31485 0.0811294 0.171345 0.0398058
71 1 0.880003 0.00409453 0.0264808 0.160047 -3.34518 0.081228 0.131128 0.284714
76 1 0.909005 0.0289375 0.0276961 0.316855 -3.3636 0.107056 -0.269787 0.0981035
70 1 0.883754 0.0281955 0.00411637 0.115618 -3.32622 -0.000271767 -0.102603 -0.128133
73 1 0.911336 0.00436825 0.00544923 0.364998 -3.32816 0.309035 0.0477389 0.315012
74 1 0.940856 0.0285766 0.00881068 0.200601 -3.35033 0.0723012 -0.0515031 -0.043677
75 1 0.938848 0.00398926 0.030806 0.103086 -3.34167 -0.17163 0.116657 0.0275699
80 1 0.968844 0.0275008 0.0335872 0.436129 -3.33739 -0.24106 -0.0402568 -0.160273
78 1 0.998074 0.0281362 0.0127605 7.41952 -3.32628 -0.0952749 0.0793858 -0.23102
77 1 0.969359 0.00428556 0.0109686 7.43487 -3.31268 0.0470451 0.251114 -0.0407916
79 1 0.996239 0.003076 0.0356395 6.84843 -3.33829 -0.320862 0.148103 -0.0538549
83 1 0.0518425 0.0535986 0.0391258 7.59463 -3.32121 0.180033 -0.244086 -0.0917709
84 1 0.024074 0.0766139 0.038256 0.271301 -3.32244 -0.181374 0.093546 -0.0752741
82 1 0.054864 0.0765767 0.0178325 7.06394 -3.33234 0.148793 -0.0373856 -0.117241
81 1 0.0254209 0.0521793 0.0142662 6.65078 -3.32535 0.265343 -0.0425769 0.0482673
88 1 0.0807326 0.0777508 0.0432182 7.03169 -3.32291 0.241782 -0.276003 -0.0980648
92 1 0.0954333 0.0697605 0.0116613 6.58186 -3.32721 -0.105694 0.0261105 -0.176077
171 1 0.12512 0.0946779 0.0149061 6.9011 -3.31284 -0.312194 -0.0291561 -0.495469
1690 1 0.120974 0.0711205 0.0349884 5.95578 -3.30351 -0.182135 -0.334467 -0.00465036
96 1 0.153584 0.0701219 0.0148063 0.196375 -3.33993 -0.0731357 -0.0355737 0.0796199
1694 1 0.178223 0.0698776 0.0389989 0.0996454 -3.3539 0.00943837 0.209178 -0.061791
175 1 0.183287 0.0939891 0.0163085 0.329996 -3.31392 -0.239165 0.189472 0.276567
1773 1 0.150962 0.0939884 0.0368675 6.26035 -3.29966 0.156598 0.0877426 0.177885
100 1 0.210226 0.0708856 0.0188146 0.152591 -3.31089 0.136038 -0.0489133 0.313234
1777 1 0.207035 0.0945306 0.0413245 0.05811 -3.32848 -0.184671 -0.0449169 0.000254671
98 1 0.24343 0.0727418 -0.000904204 6.9566 -3.34198 -0.0875151 0.0796863 0.125339
179 1 0.239955 0.0952804 0.0217911 7.28549 -3.33875 -0.0202451 -0.0235122 -0.0794109
177 1 0.21567 0.0957193 0.997516 6.86252 -3.31741 0.162251 -0.000749148 -0.0376852
1698 1 0.233276 0.0704594 0.0437128 0.240374 -3.34065 0.0534249 -0.0488104 0.162723
104 1 0.267033 0.0726941 0.0253708 7.01219 -3.29622 -0.103009 -0.295633 -0.412792
108 1 0.307799 0.0806042 0.0213632 0.247371 -3.28191 -0.0352595 0.240366 0.11983
105 1 0.310358 0.0592776 0.997427 2.18059 -3.3037 0.207155 -0.252807 -0.00254348
107 1 0.335562 0.0598409 0.0223443 1.27159 -3.2674 0.0677488 -0.286429 0.155096
112 1 0.351221 0.0889531 0.0189193 5.97049 -3.30064 -0.153694 0.0149705 -0.115968
1710 1 0.375138 0.0881524 0.0427265 6.78056 -3.30441 0.193779 0.0568921 -0.0467535
1706 1 0.332604 0.0814485 0.0473287 0.673675 -3.30657 -0.0550787 -0.2218 -0.300868
111 1 0.379589 0.0653909 0.0188471 6.53356 -3.32012 -0.169069 0.192395 0.0145053
115 1 0.427483 0.0616577 0.0159908 1.18408 -3.26736 0.0762224 -0.00698797 0.251006
1713 1 0.404606 0.0650173 0.0425891 6.11197 -3.34125 0.115239 0.190526 -0.137739
116 1 0.412103 0.0909071 0.022219 7.61392 -3.32661 -0.0791963 -0.0589364 0.381083
110 1 0.384374 0.0898441 0.998366 6.53462 -3.33559 0.0632319 -0.208324 -0.127112
119 1 0.470661 0.0562969 0.0137658 6.48763 -3.29381 0.113943 0.115699 0.0732224
120 1 0.454211 0.0854101 0.0184446 0.597213 -3.30798 0.0337285 0.134152 0.0867908
124 1 0.496768 0.0796157 0.0151544 8.56466 -3.34657 0.0840997 0.174935 0.0502247
1717 1 0.451756 0.0641612 0.0414582 1.45091 -3.26145 0.158818 -0.31091 0.106533
1718 1 0.479204 0.0863205 0.0455557 0.351544 -3.29544 0.0672376 -0.19223 0.0632975
1721 1 0.496951 0.0574618 0.0400006 6.59224 -3.30336 -0.297503 0.068632 0.111431
123 1 0.527896 0.0584238 0.0205065 5.93327 -3.26929 0.388912 -0.0985414 -0.190708
128 1 0.54238 0.0862934 0.0124763 7.1219 -3.27399 0.0230583 -0.265714 0.0215669
1722 1 0.522386 0.0813942 0.0424993 8.91312 -3.35933 0.202611 0.124111 0.134666
127 1 0.571721 0.0603479 0.0168529 6.12111 -3.2262 -0.0910984 0.265493 -0.0788407
131 1 0.616478 0.0546757 0.0175655 0.855394 -3.271 0.184846 0.0900929 0.192182
132 1 0.596924 0.0850066 0.0178215 5.0677 -3.31689 0.215958 0.0171061 0.132116
1726 1 0.563565 0.0859838 0.0375604 6.99562 -3.27959 -0.266759 -0.0144729 -0.317524
1729 1 0.59307 0.0606165 0.0406865 6.89244 -3.23332 -0.0130439 0.119803 0.206102
1730 1 0.619434 0.0849829 0.0434616 5.50176 -3.31555 -0.0117185 0.044864 -0.125867
136 1 0.643059 0.0781016 0.0183746 0.962655 -3.28002 -0.304586 -0.181869 0.0570091
1733 1 0.643452 0.0582974 0.0447232 5.60092 -3.28182 -0.455277 -0.151732 0.0142469
1734 1 0.669646 0.0808034 0.0470038 6.62212 -3.2401 -0.0524513 0.233637 -0.299743
1737 1 0.683627 0.0504002 0.0408716 7.46802 -3.31261 0.190794 -0.285833 0.125275
140 1 0.68505 0.0710222 0.0168184 6.25401 -3.34072 -0.278725 0.299833 -0.195909
139 1 0.716643 0.0494748 0.019975 1.04655 -3.30285 -0.226901 -0.0485815 0.107334
144 1 0.73737 0.0758111 0.0177528 1.50632 -3.28754 0.228386 0.109655 0.245087
219 1 0.707772 0.097699 0.0147975 7.43539 -3.32925 0.0185232 -0.0651327 0.105263
1738 1 0.710113 0.074012 0.0417782 6.63638 -3.34155 0.1007 0.144574 0.0858089
143 1 0.767153 0.0537487 0.0207946 1.73475 -3.31405 0.182207 0.297922 0.135425
148 1 0.795493 0.076982 0.0209246 0.318576 -3.32668 0.0489829 -0.0310185 -0.0275647
145 1 0.800993 0.0536057 0.998174 0.545807 -3.32494 0.0854751 -0.171382 -0.104886
147 1 0.825868 0.0551226 0.0218834 0.535114 -3.31929 0.260369 -0.20621 0.0934925
152 1 0.854192 0.0775321 0.0231763 0.147319 -3.31777 0.150454 -0.09065 0.270188
1746 1 0.822466 0.079303 0.0436682 0.555958 -3.35014 0.0827957 -0.2891 0.245019
149 1 0.857956 0.0524319 0.00210039 0.269015 -3.33223 -0.228147 -0.0327391 -0.169104
229 1 0.856714 0.100508 0.00117926 0.305456 -3.32948 0.0737926 -0.185207 -0.312993
1749 1 0.852345 0.0529421 0.0461604 0.390883 -3.31711 -0.165285 0.504332 0.00409116
146 1 0.830247 0.0768139 0.999058 0.462044 -3.30104 -0.102981 -0.294554 -0.247892
151 1 0.88165 0.0536328 0.0262749 0.425753 -3.32591 0.280501 -0.282411 -0.13303
155 1 0.9385 0.0516404 0.0308123 0.211578 -3.33002 0.205036 -0.0686985 -0.40124
156 1 0.911403 0.0760995 0.0277957 0.125782 -3.34732 -0.0761383 -0.144782 -0.0395812
150 1 0.885317 0.0764716 0.00287215 0.13281 -3.34757 -0.0139988 -0.00715789 0.064736
153 1 0.91169 0.0522272 0.00467439 0.385876 -3.33099 0.0899542 -0.0399759 0.366124
233 1 0.914865 0.0988102 0.00504248 0.24533 -3.35408 -0.041387 0.138561 0.0192928
154 1 0.941996 0.074913 0.00735728 0.204357 -3.35091 -0.029107 0.0914746 0.00177662
159 1 0.996032 0.0527519 0.0355654 0.445848 -3.31882 -0.0205996 -0.205813 -0.0560143
160 1 0.96751 0.0750465 0.0323713 0.136593 -3.33056 0.064334 0.0591362 0.120717
157 1 0.970557 0.0523542 0.0104811 0.130391 -3.34422 -0.0315173 -0.200025 -0.102401
158 1 0.999304 0.0759004 0.0122641 0.173523 -3.33102 -0.103591 0.123479 0.0682808
237 1 0.969022 0.0992057 0.00951448 0.300485 -3.35582 0.129386 -0.108549 -0.096601
161 1 0.0281979 0.100243 0.0153391 0.280399 -3.33247 -0.158615 -0.181533 -0.0472085
163 1 0.0529351 0.0998947 0.0406961 0.135742 -3.30999 -0.20499 0.18849 0.148599
164 1 0.0239379 0.12279 0.0374769 0.113604 -3.35358 -0.137785 0.00993566 0.221749
162 1 0.0562782 0.123609 0.0181054 0.136619 -3.31964 0.0331018 -0.114545 0.0365153
243 1 0.0515819 0.146624 0.0408494 0.123804 -3.33438 -0.0465061 0.114371 0.0828902
241 1 0.0266753 0.14558 0.0152024 0.0985313 -3.34117 -0.202147 0.132541 0.0763601
168 1 0.0802164 0.123593 0.0445591 0.345871 -3.32858 0.360485 0.0180246 -0.183714
167 1 0.0849452 0.0997394 0.0209791 7.17228 -3.3421 0.0855464 0.200993 -0.00792315
172 1 0.113652 0.124616 0.0255048 6.78997 -3.35123 -0.0048323 -0.010522 -0.201394
247 1 0.110311 0.146667 0.0487037 0.36032 -3.33914 0.014658 0.00587008 -0.338934
249 1 0.1173 0.147575 0.00229942 6.73138 -3.32652 0.15145 0.0732469 -0.0135931
245 1 0.084355 0.147225 0.0207234 0.394016 -3.3149 -0.04027 -0.0939014 0.374849
1769 1 0.111765 0.100247 0.046251 6.31007 -3.34212 -0.227867 -0.00790327 0.104424
176 1 0.153973 0.118239 0.0158224 6.01508 -3.31314 -0.149688 -0.0173689 0.0116582
255 1 0.183802 0.142959 0.0173532 8.08895 -3.33775 -0.177731 0.10197 0.101024
251 1 0.143526 0.147248 0.0284751 6.03171 -3.34358 0.12227 -0.0121899 -0.175658
1774 1 0.179449 0.119278 0.0387911 5.88438 -3.29379 -0.147475 -0.463287 0.0366615
180 1 0.211722 0.118348 0.0190356 6.88095 -3.33582 0.00277472 0.051659 0.0454608
259 1 0.225537 0.149465 0.0134006 0.218218 -3.29863 0.0820496 0.129284 0.158232
1778 1 0.235875 0.117673 0.044379 6.98328 -3.31155 0.0245056 0.00666323 -0.0257188
1857 1 0.20873 0.141543 0.0410805 7.75656 -3.31384 -0.0940099 0.23273 0.121751
184 1 0.252511 0.126295 0.0167855 0.17246 -3.29888 0.16462 0.0666391 -0.147434
183 1 0.281603 0.104273 0.0185337 0.359305 -3.32399 -0.129349 -0.0460868 0.0455629
188 1 0.295382 0.135487 0.0136795 7.33889 -3.35311 -0.19916 -0.0683541 0.0802992
1782 1 0.276406 0.125952 0.0410979 0.138247 -3.32804 0.186112 -0.0368213 0.120406
1785 1 0.303624 0.10231 0.0444728 0.412377 -3.32284 -0.00526443 0.201833 -0.00752546
1861 1 0.248813 0.148672 0.0390071 0.248922 -3.30303 0.242615 0.188378 -0.0913212
1789 1 0.347255 0.11155 0.041793 6.96479 -3.31485 -0.078956 0.30991 -0.392602
187 1 0.322372 0.111373 0.0170618 6.89785 -3.36157 0.0224575 0.169805 -0.103631
192 1 0.353401 0.135439 0.020109 0.221167 -3.37244 -0.0409104 0.0656825 0.0994341
1786 1 0.318441 0.134797 0.0394266 7.40403 -3.34556 0.130254 -0.201013 -0.117249
195 1 0.440484 0.115378 0.0266404 7.16103 -3.34684 -0.115541 0.00452579 -0.0440733
191 1 0.381523 0.111679 0.0208395 0.616913 -3.30426 -0.06989 0.355482 0.363116
196 1 0.410414 0.137556 0.0252794 0.243782 -3.34123 0.0763157 0.0851599 0.0543331
193 1 0.412907 0.114392 0.00105004 6.89551 -3.30686 0.161164 -0.00471417 -0.069512
190 1 0.385839 0.137216 0.000763678 0.70227 -3.29095 -0.0964233 0.195771 0.23285
1790 1 0.378121 0.137186 0.0455791 0.362752 -3.34426 -0.0131693 -0.216734 -0.184112
194 1 0.442139 0.138871 0.00361937 6.90048 -3.32161 -0.110107 -0.323277 0.169821
199 1 0.480831 0.108786 0.0248551 3.96172 -3.28105 -0.0882339 0.0214021 -0.1266
200 1 0.466745 0.139195 0.0324696 6.46507 -3.35756 0.126991 0.27325 -0.041833
204 1 0.481227 0.130583 0.00312627 6.67477 -3.30324 -0.0470679 -0.0440091 0.0912586
203 1 0.513974 0.107805 0.00758344 5.02012 -3.25837 -0.0700365 0.199927 0.163363
1805 1 0.536415 0.111462 0.0321184 5.36523 -3.28512 0.0702856 -0.33029 0.0150754
208 1 0.539699 0.133335 0.00884013 0.38479 -3.31459 -0.14322 0.0052902 -0.0743993
1802 1 0.507137 0.133498 0.0287467 6.60554 -3.3207 -0.164658 -0.142213 0.044907
1806 1 0.561818 0.135768 0.034802 0.761311 -3.30044 0.383978 -0.266678 -0.0713129
207 1 0.568777 0.110015 0.0129957 0.289336 -3.25612 -0.253419 -0.304361 0.127672
212 1 0.593258 0.133101 0.0140851 0.350078 -3.28947 0.209289 0.380881 0.223653
211 1 0.622665 0.109375 0.0199003 5.86489 -3.33693 0.204484 -0.163911 -0.0107714
1809 1 0.58977 0.109767 0.0390213 0.190264 -3.29659 -0.109279 -0.0456664 -0.0238669
1810 1 0.615557 0.132812 0.041676 0.597538 -3.30903 0.351799 0.239634 -0.106315
215 1 0.665042 0.102284 0.0188288 0.431189 -3.26314 0.333786 0.155648 -0.0814436
216 1 0.647709 0.133941 0.0207067 6.29332 -3.31475 0.00468641 -0.280865 0.23646
220 1 0.689645 0.126099 0.0206697 2.76611 -3.25522 0.0755892 -0.0238999 -0.168402
224 1 0.735053 0.122752 0.0164197 3.3543 -3.33909 -0.10389 -0.110704 -0.438566
1821 1 0.734489 0.0995787 0.0412259 6.83478 -3.30208 0.0642452 -0.264642 -0.11857
1817 1 0.692679 0.105048 0.0447335 1.09967 -3.2734 -0.0440186 -0.142057 0.117145
1818 1 0.71765 0.127879 0.0449118 5.45312 -3.1853 0.0227325 -0.058951 0.188829
223 1 0.765356 0.0984806 0.0191794 0.56255 -3.34496 0.0680739 0.238336 -0.136509
228 1 0.795214 0.122581 0.0181979 0.315353 -3.35448 -0.295975 0.179146 0.162095
1822 1 0.760035 0.124922 0.0388799 5.37752 -3.3553 0.302498 0.241255 0.12179
1825 1 0.791576 0.101293 0.0424344 0.453522 -3.32635 0.0542455 0.120611 -0.0139759
227 1 0.824966 0.0997059 0.0204377 0.357505 -3.29059 -0.0399298 0.243106 0.3801
232 1 0.852914 0.123918 0.023453 0.2234 -3.31451 -0.0380089 -0.0556274 -0.160118
1826 1 0.820145 0.124761 0.0421927 0.159645 -3.35605 -0.0783043 0.170352 0.145026
1829 1 0.850838 0.101676 0.0450737 0.115673 -3.32875 -0.0145603 -0.166242 0.123876
235 1 0.939966 0.0986356 0.0303993 0.0556558 -3.31219 -0.0671429 -0.00656822 0.0584487
231 1 0.883278 0.100476 0.0252255 0.17436 -3.35502 -0.0699397 -0.125572 0.129469
236 1 0.912469 0.12236 0.0281751 0.329537 -3.33128 -0.418581 0.00185409 -0.056798
230 1 0.884977 0.122275 0.00264725 0.151654 -3.35412 0.195376 0.209798 0.0327204
311 1 0.881532 0.146005 0.0244673 0.172526 -3.34845 0.11712 0.0959232 0.202401
313 1 0.914063 0.14604 0.00538221 0.405054 -3.34537 -0.291644 -0.146208 -0.260886
1830 1 0.879091 0.123775 0.0477148 0.0993293 -3.34098 0.14472 0.178082 -0.113001
234 1 0.941824 0.123208 0.00743211 0.31937 -3.33256 0.0741424 -0.337224 -0.267143
239 1 0.995022 0.0991166 0.0349002 0.201496 -3.33728 0.268046 -0.139247 0.0403711
240 1 0.967605 0.121699 0.0330222 0.222653 -3.29724 0.0367893 0.178945 -0.1454
238 1 0.998675 0.121593 0.011879 0.195181 -3.34272 -0.027553 0.170723 0.0854836
315 1 0.940206 0.144753 0.0302502 0.624463 -3.32292 -0.127874 0.456891 0.0119037
317 1 0.970606 0.144878 0.00901 0.254116 -3.32714 -0.191705 0.157387 0.106645
319 1 0.994654 0.145627 0.0347278 0.123724 -3.35908 0.0988094 0.0655917 0.0388865
244 1 0.0222262 0.170465 0.0383651 0.192368 -3.3458 0.231976 -0.221231 -0.0894663
242 1 0.054169 0.169235 0.0190523 0.18782 -3.35975 0.0260187 0.306397 -0.143731
321 1 0.0252135 0.193129 0.0153928 0.0756319 -3.34254 0.229654 -0.0648811 -0.0219972
323 1 0.0508722 0.193088 0.0420955 0.134599 -3.34257 0.0827034 0.160385 -0.155711
248 1 0.0798572 0.1693 0.0443929 0.242107 -3.34919 0.298517 0.161785 -0.104872
246 1 0.113145 0.170333 0.02507 0.11317 -3.3484 -0.0457539 0.0636615 0.245636
327 1 0.109689 0.193182 0.0477373 0.125472 -3.34594 0.0237095 -0.132367 -0.0346456
325 1 0.082867 0.19425 0.0224238 0.226825 -3.32781 0.0224851 -0.239737 0.0411303
30727 1 0.113985 0.194451 0.0032274 0.560875 -3.31005 0.0626749 0.0443133 0.0882134
256 1 0.172551 0.171375 0.0320606 5.78667 -3.33819 -0.0172586 -0.143574 0.243639
250 1 0.146311 0.17149 0.00742159 2.11645 -3.32312 -0.261065 -0.0252663 0.00483837
329 1 0.142166 0.195339 0.0292362 0.181909 -3.28498 -0.372459 -0.17652 0.0669404
335 1 0.172885 0.196911 0.0115244 7.20751 -3.22744 -0.0463133 -0.0420863 -0.455526
260 1 0.199988 0.173673 0.0108086 3.4683 -3.2807 -0.0908463 -0.0831904 0.0669772
264 1 0.239421 0.181745 0.0089441 7.37519 -3.34498 -0.155864 0.0790653 -0.175278
1858 1 0.223276 0.172887 0.0357152 1.84894 -3.28676 -0.111522 -0.113325 -0.0276517
1937 1 0.197665 0.196729 0.0355706 6.97332 -3.20051 -0.320609 -0.0374069 -0.390843
263 1 0.266876 0.158436 0.0112594 7.45662 -3.3531 -0.0512285 -0.133692 0.0570545
1862 1 0.263545 0.181134 0.03323 6.97389 -3.3208 -0.174721 0.047044 0.0870405
268 1 0.296425 0.1831 0.0157468 0.0936811 -3.323 0.206526 -0.159315 0.0328302
1865 1 0.290629 0.157781 0.0364036 7.69717 -3.33238 -0.0998028 -0.215147 -0.111722
267 1 0.324697 0.159411 0.0182473 0.0286032 -3.33525 0.0632048 -0.0660259 -0.0815276
272 1 0.353745 0.183449 0.0226923 0.0555952 -3.3482 0.0996301 0.135113 -0.042366
1869 1 0.348478 0.158951 0.043404 0.132231 -3.3125 0.321028 -0.0697245 -0.144628
1866 1 0.321408 0.181865 0.0406493 0.207427 -3.29585 -0.135229 0.265664 0.0327762
269 1 0.357722 0.160691 0.999204 0.155757 -3.3322 0.0358341 -0.0690794 -0.0124381
271 1 0.382125 0.160934 0.0242851 0.119088 -3.34204 0.0540161 -0.157467 -0.0143575
273 1 0.417261 0.163526 0.00693559 6.07449 -3.3074 -0.186147 -0.109242 -0.196646
276 1 0.410977 0.185697 0.0299636 0.0552623 -3.32608 0.0231716 0.199172 -0.00936187
270 1 0.387478 0.185652 0.0047086 0.096487 -3.32626 -0.11253 0.141525 -0.0524904
275 1 0.43982 0.163268 0.0315351 0.609409 -3.30399 0.121662 -0.144097 0.10913
280 1 0.444491 0.188207 0.0119601 6.16208 -3.31492 0.234505 0.167802 0.0695244
279 1 0.468255 0.163067 0.00900136 5.65686 -3.29437 0.0516012 -0.189443 0.127428
284 1 0.49633 0.185733 0.0166491 6.44037 -3.29556 0.306722 0.176571 -0.117693
1881 1 0.495485 0.163974 0.0385969 6.56801 -3.31874 -0.165542 -0.353984 0.105249
1878 1 0.467925 0.187254 0.0379911 0.896116 -3.31625 -0.219384 0.0492248 -0.110502
283 1 0.507319 0.155035 0.00621772 6.44055 -3.32247 0.0847743 0.152572 -0.193737
288 1 0.53475 0.179434 0.00694161 5.97459 -3.31163 -0.319572 0.198985 0.261882
1882 1 0.524701 0.185758 0.0463288 1.91887 -3.30759 -0.0842826 -0.0315304 -0.0155801
1885 1 0.533274 0.15745 0.0309808 5.6239 -3.30227 -0.0129412 0.21292 -0.0101304
1886 1 0.559781 0.182363 0.033633 1.53946 -3.33212 -0.003973 -0.171119 -0.290581
287 1 0.565313 0.158048 0.0108339 0.539698 -3.31097 -0.24645 -0.287674 0.0663231
291 1 0.618602 0.157206 0.016098 0.490708 -3.28133 -0.117785 -0.194927 0.158879
292 1 0.590207 0.181883 0.0124623 0.472877 -3.2806 -0.0377747 -0.170923 0.303891
1889 1 0.590042 0.158679 0.0363838 0.611166 -3.32887 -0.365495 -0.209725 0.210743
1890 1 0.616095 0.182174 0.0390283 0.57674 -3.3144 0.0419931 -0.232667 -0.138905
295 1 0.676006 0.155358 0.024549 6.12514 -3.27345 -0.119436 -0.0712644 -0.475965
296 1 0.64797 0.17793 0.0192875 0.463885 -3.30537 -0.00307493 0.255218 0.136476
293 1 0.650026 0.155124 0.996832 5.50349 -3.27592 -0.136302 0.0947466 -0.158305
294 1 0.677464 0.177292 0.998098 6.14525 -3.34645 0.141236 0.0294317 -0.0508328
1901 1 0.734637 0.152267 0.0325024 4.58183 -3.18919 0.00673883 -0.13114 0.292658
300 1 0.703069 0.177605 0.0244546 1.7628 -3.3338 0.199751 -0.0584558 -0.032428
299 1 0.711452 0.148767 0.00922062 5.63589 -3.21843 -0.216329 0.0255593 0.168556
304 1 0.738452 0.172314 0.0108537 1.34611 -3.25234 0.100801 0.26959 -0.240181
303 1 0.765502 0.147146 0.0144772 0.37583 -3.32493 0.247174 -0.147963 0.0775395
1905 1 0.790697 0.149776 0.03868 0.402911 -3.37171 0.152323 -0.346661 -0.066518
308 1 0.794983 0.171841 0.0150168 0.250008 -3.34632 0.0661957 -0.0362242 0.118653
1902 1 0.764629 0.175281 0.0333329 1.20819 -3.24387 -0.408647 -0.272229 0.320273
383 1 0.765609 0.196716 0.0123669 0.845833 -3.2859 0.340122 0.0323215 -0.304998
1985 1 0.792464 0.197413 0.0369062 0.335649 -3.3004 -0.105745 0.0656867 -0.0907637
1906 1 0.819686 0.172894 0.041708 0.33772 -3.33797 0.0974629 -0.191459 -0.481096
307 1 0.823091 0.146817 0.0192211 0.218381 -3.35383 -0.0543307 0.185316 0.252708
312 1 0.852143 0.170168 0.0219867 0.159796 -3.35835 -0.022051 0.13595 -0.0556895
1909 1 0.849269 0.148338 0.0446435 0.0537839 -3.35093 -0.0805815 0.0873799 -0.041819
387 1 0.822939 0.194987 0.0171956 0.265983 -3.3663 0.218611 -0.0166444 0.216941
1989 1 0.84958 0.19428 0.0423845 0.520092 -3.34512 -0.104653 0.337702 0.012211
1910 1 0.879034 0.170938 0.0472083 0.427335 -3.34301 -0.115534 -0.104961 -0.255087
310 1 0.883813 0.169787 0.00180525 0.0986408 -3.33464 -0.118454 -0.208858 -0.00606603
316 1 0.909069 0.168884 0.0266261 0.311906 -3.34562 0.198832 0.229674 0.047046
391 1 0.88116 0.193573 0.0231736 0.126602 -3.34729 -0.143588 -0.0742707 -0.0544156
393 1 0.911708 0.192599 0.00318325 0.113201 -3.32755 0.0850852 0.00919424 0.123564
314 1 0.941358 0.168605 0.00661 0.198301 -3.35072 -0.0312249 -0.0572467 -0.0524283
320 1 0.965723 0.169256 0.0318546 0.131366 -3.34651 0.0458412 0.0706108 0.0475087
318 1 0.997222 0.168961 0.0126802 0.105082 -3.34588 0.0905009 0.0386377 -0.0322297
395 1 0.93641 0.1931 0.0276274 0.212619 -3.36572 0.0116779 -0.0164466 0.241187
399 1 0.994315 0.193842 0.034316 0.186915 -3.33391 -0.186464 -0.111933 0.207842
397 1 0.968344 0.191979 0.00909918 0.0993568 -3.33939 0.145489 0.143745 -0.111317
322 1 0.0533041 0.216496 0.0192993 0.252785 -3.33737 -0.0531921 -0.00953505 -0.144289
324 1 0.0214618 0.217293 0.0384421 0.0949737 -3.33009 0.0179357 -0.0889916 -0.0854423
403 1 0.0494286 0.239776 0.0408999 0.194849 -3.31791 0.228163 0.0846192 0.0353247
401 1 0.0245778 0.240219 0.0146774 0.117148 -3.34181 0.00999709 -0.167363 -0.00778457
328 1 0.0801699 0.216029 0.0450792 0.511995 -3.3456 -0.132014 0.352144 -0.0314282
326 1 0.111681 0.217939 0.025434 1.31449 -3.33181 -0.206474 -0.153596 -0.0859057
405 1 0.0805065 0.240062 0.0204747 6.20904 -3.34225 0.156018 -0.112602 -0.00942039
407 1 0.107347 0.24164 0.0455916 5.79236 -3.30827 -0.0570481 -0.436069 0.33097
409 1 0.119133 0.245724 0.00998696 2.46515 -3.29518 -0.118913 -0.360854 -0.155124
336 1 0.170646 0.220438 0.0320888 6.61408 -3.26983 -0.104115 0.100751 0.12613
330 1 0.144788 0.220767 0.00931814 7.94971 -3.2412 0.0455252 -0.229637 0.069689
411 1 0.144341 0.243706 0.0349818 6.25291 -3.29696 -0.0269777 -0.0342915 0.0791358
339 1 0.210407 0.206619 0.00747959 8.98366 -3.32 -0.0934269 0.1459 0.0528563
340 1 0.208657 0.229424 0.0306775 9.46436 -3.24009 0.0240911 -0.154558 -0.249596
344 1 0.240638 0.229811 0.0111802 0.263686 -3.31787 -0.183453 0.156066 0.232754
1941 1 0.235976 0.205297 0.031008 7.50667 -3.31752 0.157728 0.00316221 0.0771655
343 1 0.269203 0.20592 0.0136006 0.11756 -3.32535 -0.175687 0.235857 0.047646
348 1 0.298237 0.230083 0.0194892 0.163938 -3.33026 -0.0553132 0.110107 -0.28006
1942 1 0.265861 0.229858 0.0377502 0.354796 -3.32962 -0.047222 -0.0299474 -0.203651
1945 1 0.293602 0.205816 0.0396785 0.291937 -3.34838 -0.146289 0.0858793 -0.00754176
347 1 0.325804 0.206985 0.0210043 0.0468616 -3.33664 0.0986121 -0.00365352 -0.0864505
349 1 0.358445 0.208957 0.00227625 0.105069 -3.34008 -0.0253718 -0.0791697 0.106345
352 1 0.353828 0.231936 0.0264474 0.146006 -3.33914 -0.00739188 0.0020898 -0.0739494
346 1 0.33109 0.23158 6.17561e-05 0.23661 -3.35553 -0.342031 0.0691429 0.0764326
1949 1 0.349673 0.206396 0.046112 0.131019 -3.34523 0.0683575 0.128456 0.0331594
1946 1 0.321413 0.230511 0.0443261 0.0765726 -3.30565 0.172888 -0.0185589 -0.0871198
355 1 0.415648 0.210715 0.00957263 0.0744488 -3.34714 0.0269253 0.0429407 0.0881007
351 1 0.382149 0.208792 0.0276395 0.0537561 -3.33412 0.0297741 -0.16585 0.14677
356 1 0.386119 0.233272 0.00844283 0.389651 -3.3321 0.154611 0.214062 -0.442716
1954 1 0.409846 0.233721 0.0332903 0.26193 -3.30964 0.307822 -0.255653 -0.244377
360 1 0.444084 0.235368 0.013875 0.127295 -3.31692 -0.181155 -0.148994 0.14376
359 1 0.472727 0.2122 0.0174409 3.09258 -3.27092 -0.233691 -0.234559 0.0368591
1957 1 0.439199 0.211455 0.0352324 0.192561 -3.35745 -0.0489833 -0.342799 -0.0818766
364 1 0.500221 0.233975 0.0226103 1.0501 -3.28354 0.258958 0.156809 -0.181406
1958 1 0.46724 0.235289 0.0390781 0.380543 -3.31207 0.28342 -0.320323 0.348374
1961 1 0.496332 0.209767 0.042629 0.322765 -3.31965 -0.0146252 0.0298912 0.218227
363 1 0.527776 0.208162 0.0242999 1.46588 -3.3301 -0.075247 -0.222799 -0.082504
368 1 0.557199 0.230266 0.0288728 0.253218 -3.32804 -0.00562617 0.150971 0.0348525
362 1 0.529962 0.231027 0.00263201 6.73865 -3.30399 -0.0124323 -0.215067 -0.131793
367 1 0.56139 0.204337 0.00881646 0.58712 -3.31938 -0.17601 0.101974 0.00473702
371 1 0.61936 0.203399 0.015621 0.218959 -3.34108 0.0720802 -0.0377608 -0.0652045
372 1 0.590545 0.227243 0.0118147 0.264003 -3.33176 -0.149792 0.0793771 -0.170876
1969 1 0.587034 0.205785 0.0351183 0.361068 -3.32656 -0.0399714 -0.11572 -0.197807
1970 1 0.616205 0.227632 0.0368822 0.243575 -3.30693 -0.13499 -0.168331 0.0915752
375 1 0.675221 0.201502 0.0205953 0.180051 -3.31858 -0.0149672 -0.0328149 -0.0379879
376 1 0.646883 0.226089 0.0168169 0.192582 -3.34147 0.146505 -0.102641 0.0112157
374 1 0.679322 0.224237 0.998347 0.487719 -3.34397 -0.172419 -0.019835 -0.342454
1973 1 0.646796 0.202149 0.0413221 1.25428 -3.34877 -0.373706 0.22803 0.0647615
1974 1 0.672576 0.226305 0.0426355 0.29774 -3.32812 -0.0148091 -0.240752 0.11545
380 1 0.704196 0.223723 0.022854 0.163367 -3.31455 0.110696 0.0633684 0.229845
377 1 0.70603 0.199734 0.000166956 5.62424 -3.33762 0.0825103 -0.0495406 0.0226007
379 1 0.731703 0.199777 0.027104 0.948898 -3.32948 0.0917267 0.0475248 0.129214
378 1 0.73637 0.222021 0.0041767 1.11289 -3.34798 0.0917847 -0.0352589 0.107668
459 1 0.73466 0.245858 0.0260717 0.359242 -3.36105 -0.00420415 0.128814 0.206709
384 1 0.762719 0.221703 0.030816 0.304391 -3.34968 -0.164174 0.250421 0.418222
388 1 0.79594 0.219984 0.0152761 0.407152 -3.34323 0.200181 -0.00958573 -0.379644
463 1 0.794822 0.24411 0.0362684 0.900575 -3.33218 -0.262965 0.174085 0.0844611
461 1 0.769022 0.245001 0.0101751 0.306554 -3.28711 -0.279041 -0.369522 0.19181