ITEM: TIMESTEP
10000
ITEM: NUMBER OF ATOMS
32000
ITEM: BOX BOUNDS pp pp pp
4.0466537268806961e+00 7.6953346273114150e+01
-1.6279832983201175e+00 8.2627983298314120e+01
-1.6277162283492999e+00 8.2627716228345349e+01
ITEM: ATOMS id type xs ys zs c_csym c_peratom fx fy fz
8 1 0.0500662 0.0249512 0.0249256 0.00972337 -3.31838 0.0411573 0.0011097 0.0804835
1605 1 0.0501458 0.000187707 0.0502414 0.00796399 -3.32159 -0.0307016 -0.021192 -0.0530199
4 1 8.29836e-05 0.0252227 0.0253594 0.0231874 -3.32601 0.0136191 -0.0805902 -0.0861203
3 1 0.0248951 0.000265237 0.0248973 0.0241307 -3.32281 0.0623338 -0.0268234 0.0201217
1602 1 0.0252726 0.0250489 0.0503135 0.0215822 -3.31643 -0.0553454 -0.0302798 -0.0764204
2 1 0.0254532 0.0250456 -5.55768e-05 0.0264541 -3.32663 -0.118188 -0.026405 0.0076319
85 1 0.050508 0.04994 -0.000444555 0.0444774 -3.31352 -0.11365 0.0416413 0.111438
12 1 0.0998692 0.0250962 0.0249267 0.0214326 -3.32464 0.053355 -0.0655684 0.0395677
6 1 0.0750283 0.0251907 -0.00012984 0.0178606 -3.31724 0.0694855 -0.0653246 0.00419619
1606 1 0.0751466 0.025015 0.0504418 0.0312493 -3.32531 -0.0227367 0.00011972 -0.14015
16 1 0.150193 0.0249538 0.025175 0.0107213 -3.31895 -0.0131525 0.00369036 -0.0930815
1614 1 0.174706 0.0249044 0.0500271 0.0321184 -3.32691 0.178868 0.028495 0.0597694
1613 1 0.150232 -0.000294816 0.0500289 0.0187019 -3.31536 -0.109097 0.0558675 0.0196788
10 1 0.125178 0.024591 0.000113741 0.0258821 -3.32395 0.0180693 0.115283 -0.00435982
20 1 0.199982 0.0249998 0.0247755 0.0190405 -3.31507 0.0447385 0.0212097 0.110444
19 1 0.225187 6.4588e-05 0.025162 0.0117242 -3.32162 -0.0745362 -0.0245745 0.0122732
1618 1 0.224732 0.0252354 0.0497578 0.0582365 -3.32662 0.0712921 -0.0798879 0.0631855
24 1 0.250414 0.0248335 0.0253261 0.0431098 -3.31375 -0.0332026 0.049144 -0.0899596
1622 1 0.275174 0.0251178 0.0501196 0.0230037 -3.31586 0.0154546 -0.0847186 0.0407119
1621 1 0.250124 0.000145895 0.0497365 0.0374033 -3.3233 -0.0360272 0.0133724 0.152141
1701 1 0.250341 0.0499328 0.0502647 0.0340769 -3.31845 -0.0652661 0.0482174 -0.0486661
28 1 0.300021 0.024776 0.0249977 0.0141791 -3.33271 0.00364421 0.0543598 -0.0507951
26 1 0.325418 0.0244018 -0.000128141 0.0601603 -3.325 -0.0763022 0.0707918 0.0498205
32 1 0.350107 0.0251239 0.0249406 0.0203574 -3.31898 0.0487922 -0.0997262 0.0210298
27 1 0.325181 -3.33359e-05 0.0250059 0.0197787 -3.33353 -0.0336555 -0.0532248 0.00645335
107 1 0.325527 0.0500629 0.0248012 0.0289043 -3.31682 -0.0930681 -0.0314791 0.0864491
30 1 0.375053 0.0248837 1.65326e-05 0.0121613 -3.31974 0.00546614 -0.00149458 0.00015739
36 1 0.400162 0.0246496 0.0247772 0.0253797 -3.32112 -0.0511833 0.0370436 0.104456
111 1 0.375267 0.0501077 0.0247248 0.0168145 -3.3141 -0.0258057 -0.0964467 0.0631708
1630 1 0.37522 0.0248306 0.0497636 0.0217152 -3.33278 -0.0114061 -0.00316176 0.00412526
115 1 0.425102 0.0496826 0.0248298 0.016086 -3.32124 0.0202538 0.0572763 0.10091
35 1 0.425328 -4.11368e-05 0.0251645 0.0112921 -3.3258 -0.0196125 -0.0427372 0.0386125
34 1 0.425274 0.0246555 0.000176725 0.0281489 -3.31536 0.0429682 0.109984 -0.0635756
40 1 0.450342 0.0249338 0.0250989 0.0143288 -3.31676 -0.00497164 0.0112433 0.0196366
1634 1 0.425104 0.0250842 0.0500873 0.00883471 -3.32633 -0.0360622 -0.0349683 -0.0517944
1717 1 0.45024 0.049914 0.0498718 0.0188376 -3.32735 -0.0746107 0.059602 0.106572
44 1 0.499364 0.024679 0.0247552 0.0903358 -3.31401 0.110473 0.0866961 0.024466
123 1 0.524618 0.0496007 0.0247294 0.0486046 -3.3166 0.0898242 0.0928571 0.0243682
42 1 0.525062 0.024945 -9.50979e-05 0.0173165 -3.32802 0.00315893 0.0120668 -0.0258891
38 1 0.474708 0.0247009 -0.000220708 0.0334169 -3.31659 0.0157523 0.08691 0.0039854
121 1 0.499785 0.0496674 -0.000148239 0.0152345 -3.31719 -0.010365 0.0183727 0.0255538
48 1 0.549883 0.025141 0.0249813 0.0150764 -3.30879 0.092351 0.000733444 -0.0245657
127 1 0.574851 0.0505186 0.0248926 0.0330822 -3.31836 0.117168 -0.117235 0.0874412
1646 1 0.574726 0.0251346 0.0498899 0.0180823 -3.32059 0.080293 0.0149837 0.0384094
1725 1 0.549875 0.0500027 0.0497588 0.0156209 -3.32813 -0.0830841 0.0312292 0.0327308
125 1 0.550187 0.0501134 0.000334663 0.0571022 -3.3198 -0.158192 0.00106801 -0.146743
52 1 0.599984 0.0250675 0.0248751 0.010379 -3.31981 -0.0572127 0.0557834 0.0582732
131 1 0.624828 0.0500115 0.0248849 0.00738168 -3.3228 -0.049452 0.0812833 -0.0509879
1650 1 0.62494 0.0249064 0.0499955 0.0113936 -3.31247 -0.0569839 0.00555828 -0.00141309
1729 1 0.600017 0.0498385 0.0502848 0.0288615 -3.32836 -0.036234 0.0325938 -0.0894393
51 1 0.624679 -1.94836e-05 0.0246882 0.0108842 -3.32023 0.0698824 -0.0150123 0.0967433
50 1 0.624629 0.0249777 -2.56177e-05 0.0147455 -3.31962 0.071372 0.0946064 -0.0503791
56 1 0.649706 0.0252363 0.0247845 0.0210119 -3.32307 0.0391869 -0.11284 0.0212348
60 1 0.700217 0.0253294 0.0247072 0.0581386 -3.33007 -0.0333428 -0.0681325 0.0489462
135 1 0.674863 0.0500127 0.0248682 0.00913044 -3.31808 0.0163878 -0.00871278 -0.0447529
55 1 0.675016 -0.000174219 0.0248851 0.0258773 -3.32626 -0.0981424 0.124311 -0.0469106
137 1 0.700066 0.0503068 -0.00066479 0.084105 -3.32163 -0.0436079 -0.0833789 0.258127
133 1 0.650257 0.050146 -0.000260282 0.0235589 -3.32606 -0.101083 -0.0254278 0.0807731
64 1 0.74978 0.0249613 0.0252266 0.0119335 -3.32845 -0.026575 -0.068978 -0.0192466
139 1 0.725131 0.0500921 0.0251517 0.0217743 -3.32354 -0.113464 0.00830173 -0.053173
1741 1 0.749977 0.0496834 0.050051 0.0142203 -3.32393 -0.0541235 0.0687087 0.0444063
58 1 0.725115 0.0251695 -0.000112375 0.0225774 -3.32535 0.00636461 -0.0116902 0.0245453
141 1 0.750077 0.050302 0.000154339 0.0148859 -3.30893 -0.0453749 -0.116127 -0.0213644
62 1 0.774801 0.0248502 0.000418858 0.0318413 -3.32834 0.0570007 0.0965902 -0.0651535
68 1 0.7998 0.0250197 0.0252648 0.00738349 -3.31584 0.032354 0.028659 -0.0654585
72 1 0.849908 0.0250671 0.0250126 0.0157799 -3.32067 0.0511718 -0.000692322 -0.0428776
147 1 0.824945 0.0503356 0.0253915 0.0239424 -3.31833 -0.0302 -0.040601 -0.0870277
71 1 0.875127 -0.000225283 0.0246747 0.0348881 -3.33109 -0.029813 0.0883116 0.146224
149 1 0.850028 0.0504646 0.00057971 0.0451705 -3.33063 -0.0128466 -0.173024 -0.0932753
151 1 0.875366 0.0498275 0.0252586 0.0340635 -3.31923 -0.0347702 0.0565288 -0.0546211
69 1 0.850101 0.0001608 -5.44288e-06 0.0186178 -3.33024 -0.0710915 -0.0263509 -0.0158445
1666 1 0.824968 0.0249954 0.04977 0.0324602 -3.32239 0.00216533 0.0169731 0.134183
76 1 0.900272 0.0248405 0.0250809 0.0122434 -3.32284 -0.0539628 -0.0608765 -0.0604349
75 1 0.925103 -0.000299853 0.0247311 0.0422178 -3.31598 0.021915 0.137131 0.0653065
1674 1 0.924975 0.0248765 0.0498681 0.0111188 -3.30198 0.042854 0.0336952 0.0454838
153 1 0.899832 0.0497863 -0.000118835 0.0257343 -3.31476 0.112638 0.0457049 0.0307583
80 1 0.950096 0.0250508 0.0252451 0.0127324 -3.32251 -0.0199097 -0.0394823 -0.0787944
1678 1 0.974828 0.0248484 0.0502434 0.0176266 -3.30432 -0.0178374 0.07039 -0.065435
78 1 0.975079 0.0255166 6.38494e-05 0.0311529 -3.32487 -0.0903603 -0.149415 0.00326844
79 1 0.974864 8.21833e-05 0.0252861 0.0171743 -3.31943 0.0641539 0.0513589 -0.0749096
1677 1 0.950058 -3.36868e-05 0.0503948 0.0312998 -3.31598 -0.116873 0.00826421 -0.0804767
83 1 0.0253066 0.0498209 0.0248641 0.0117171 -3.32856 -0.0213317 0.0382925 0.00885598
88 1 0.0505179 0.0744766 0.0249699 0.0446597 -3.32836 -0.0887933 0.110468 0.0573031
82 1 0.0252305 0.074979 -0.000117399 0.0129442 -3.33166 0.0233485 -0.0789344 0.0284482
87 1 0.0749851 0.0497816 0.0252476 0.0316769 -3.3154 0.0214 0.0250676 -0.0589202
92 1 0.0998413 0.0751219 0.0248735 0.0394648 -3.32254 0.0668588 -0.116708 -0.0046356
86 1 0.0751205 0.0750731 -9.00212e-05 0.019949 -3.32112 0.05934 0.00711029 -0.0142841
89 1 0.100195 0.0499636 0.000104625 0.00501599 -3.32903 -0.0111619 -0.0198878 -0.0372037
91 1 0.125261 0.0497002 0.0250381 0.0161101 -3.32855 -0.0130337 0.0733748 -0.0125
95 1 0.17523 0.0500316 0.0250635 0.0141153 -3.31355 -0.0748052 -0.0792249 0.0210109
93 1 0.150283 0.0500676 2.05413e-05 0.018934 -3.32835 -0.00471195 -0.115206 -0.0292653
96 1 0.150412 0.0746902 0.0248654 0.0242801 -3.31545 -0.0624832 0.0211396 0.0362695
94 1 0.175509 0.0745927 -3.4517e-05 0.027473 -3.31466 -0.018617 0.134393 -0.0385218
175 1 0.175526 0.0997741 0.025004 0.0211741 -3.32902 -0.0486032 -0.00950572 -0.0479028
1694 1 0.174723 0.0746592 0.0500585 0.0389427 -3.32116 0.0829351 0.0496479 -0.0264612
100 1 0.200525 0.0744739 0.025019 0.0660617 -3.31927 -0.0584957 0.134521 0.0160557
99 1 0.225503 0.0497974 0.0250127 0.0397678 -3.31679 -0.0785371 -0.0374102 0.0131403
1697 1 0.200145 0.0501652 0.0498262 0.0305263 -3.32427 -0.0528088 -0.0653004 0.0536096
1698 1 0.22516 0.075279 0.0502011 0.0347423 -3.32057 0.00403546 -0.0455615 -0.00762716
103 1 0.275057 0.0500233 0.0251161 0.0163602 -3.32882 0.00158586 0.00147373 -0.0634785
104 1 0.249682 0.0748321 0.0252125 0.0530683 -3.32494 0.089195 0.0658621 -0.0420921
1702 1 0.275269 0.0749809 0.0499156 0.0145051 -3.33043 -0.0311372 0.0158414 0.00550019
1705 1 0.300002 0.0499744 0.0500629 0.00702425 -3.32357 0.00977544 0.00585759 -0.0356968
108 1 0.300392 0.0751134 0.0246751 0.0355439 -3.30219 -0.0297283 -0.0890065 0.184628
112 1 0.35057 0.074982 0.0251973 0.0397301 -3.31609 -0.0878014 0.0334013 -0.0362352
109 1 0.350284 0.0498295 -9.18736e-05 0.0083599 -3.31952 -0.0108939 0.0292296 -0.0318617
1706 1 0.324825 0.0748109 0.0499911 0.0210654 -3.32422 0.0223874 0.0395547 -0.0310406
105 1 0.300663 0.0499266 0.000403023 0.0473196 -3.32457 -0.0878649 -0.0510872 -0.0780462
113 1 0.40034 0.0499197 0.000183632 0.024019 -3.31491 -0.0648542 -0.0249792 -0.122485
191 1 0.374885 0.100188 0.0250638 0.0265647 -3.32475 0.142912 -0.0401368 0.0287944
116 1 0.400001 0.0748547 0.0247682 0.0173815 -3.32883 0.0721455 0.123627 0.0383346
193 1 0.400278 0.100135 -0.000128568 0.0114497 -3.33418 -0.0654197 -0.0302407 0.0252919
120 1 0.449831 0.0750412 0.0246587 0.0377846 -3.32474 0.112837 -0.00470136 0.107229
195 1 0.425448 0.100138 0.0246864 0.0284734 -3.31848 -0.120908 -0.0797907 0.108504
1714 1 0.425115 0.0751985 0.0498038 0.0159588 -3.33362 0.0407224 -0.0457832 0.00531217
114 1 0.425064 0.0747574 -0.000270746 0.0222936 -3.31145 -0.0294941 0.0969229 0.0168225
119 1 0.474995 0.0501137 0.0252386 0.0389872 -3.31639 0.0361673 -0.0205456 -0.0703551
124 1 0.500161 0.0747337 0.0248743 0.019538 -3.31712 -0.0499538 0.0904816 0.0235498
203 1 0.52511 0.0999789 0.0246844 0.0236587 -3.31468 -0.0892301 0.0243725 0.04443
201 1 0.50003 0.100335 -0.000310172 0.0296901 -3.31339 0.0262271 -0.0778797 0.0523554
1801 1 0.500003 0.100092 0.0495996 0.0376732 -3.32251 -0.0226958 0.010314 0.0756717
118 1 0.475474 0.0748554 7.64336e-06 0.0418505 -3.3183 -0.0871271 0.0641403 0.00793588
122 1 0.524916 0.0750811 -4.89942e-05 0.0196226 -3.33153 0.0112767 -0.0684897 -0.0393543
128 1 0.550017 0.075295 0.0250822 0.0282988 -3.31895 -0.0639647 -0.0776458 0.00428066
207 1 0.574804 0.1002 0.0248868 0.00654495 -3.32834 -0.000924153 0.0381572 0.0309565
126 1 0.574557 0.0753771 -0.000189863 0.0233865 -3.31078 0.0671967 -0.0598462 0.0338813
205 1 0.549784 0.0999135 -0.000341822 0.0148715 -3.314 -0.0258758 0.104221 0.00158505
132 1 0.599779 0.0752388 0.0249229 0.00371516 -3.32573 0.0277217 -0.0428625 -0.018826
211 1 0.624689 0.0999833 0.0248112 0.0113053 -3.32155 0.0448891 0.0120635 0.0610402
1730 1 0.624696 0.0750759 0.0500948 0.0121614 -3.32712 0.0521107 -0.0265213 -0.0190741
130 1 0.624919 0.0753504 -0.000368333 0.0301355 -3.32904 -0.0197016 -0.0806824 0.0671863
209 1 0.59982 0.100199 -0.000366884 0.0149825 -3.3166 -0.0292863 -0.0388301 0.0379709
136 1 0.64988 0.0749787 0.0248495 0.00816745 -3.32273 -0.074862 0.0189409 -0.0138827
140 1 0.699565 0.0749939 0.0248642 0.0190428 -3.31661 0.0948007 -0.0431033 0.024264
134 1 0.675153 0.075271 5.23195e-05 0.019222 -3.31471 -0.0558616 -0.0286061 -0.0431468
213 1 0.650127 0.0999176 -6.22713e-05 0.0166021 -3.31821 0.0203594 0.0480629 0.00713671
144 1 0.749844 0.0749349 0.0251524 0.00866721 -3.31429 0.0266899 0.0545936 0.0280162
219 1 0.724678 0.0996803 0.0248977 0.0314062 -3.3144 0.0126495 0.065992 0.0522336
143 1 0.774841 0.050012 0.0250845 0.00723791 -3.32158 0.0418767 -0.0295071 0.0139806
148 1 0.799655 0.0750897 0.0250785 0.0180472 -3.33317 0.0979926 0.00913221 0.0291855
142 1 0.77444 0.0750526 0.000219056 0.0359675 -3.30764 0.0729628 0.0360001 -0.000797268
152 1 0.850133 0.0751859 0.0253222 0.0124003 -3.32795 0.0185723 0.0266434 -0.0295778
231 1 0.875086 0.100544 0.0250511 0.0523585 -3.31882 0.0433642 -0.189713 0.0421712
150 1 0.874986 0.0749502 0.000198502 0.0194916 -3.31584 0.0489787 0.0600755 -0.00633794
146 1 0.825079 0.0751462 0.000151946 0.00911476 -3.31259 0.0246944 0.0171926 0.0623956
229 1 0.850163 0.0998708 0.000332738 0.021899 -3.32151 0.0329298 0.0372989 -0.12419
155 1 0.924927 0.0496345 0.0247808 0.0321073 -3.32255 0.0161957 0.130192 0.0428139
156 1 0.900194 0.07516 0.0247066 0.0345059 -3.33264 -0.0412035 -0.0413327 0.113886
154 1 0.925033 0.0747193 1.16383e-05 0.0303414 -3.31934 0.0118634 0.0544783 -0.0214928
1754 1 0.924752 0.074738 0.0501698 0.0223075 -3.32881 0.0821007 0.0613331 -0.0425621
233 1 0.90018 0.0999689 6.56845e-05 0.0118393 -3.32473 -0.0432676 -0.00846359 -0.0184109
159 1 0.975141 0.0498713 0.0253688 0.0211133 -3.32188 -0.0541927 0.077639 -0.0548495
81 1 1.00003 0.0497816 -7.99493e-05 0.0271342 -3.30962 0.112157 0.076112 0.0794777
84 1 1.00009 0.0747164 0.024931 0.00774621 -3.32121 -0.0197575 0.0254724 0.0509237
160 1 0.949959 0.0750739 0.0251038 0.00967018 -3.34202 0.00978544 -0.0459154 -0.0237853
1837 1 0.950042 0.100112 0.049831 0.0254997 -3.32274 -0.0520284 -0.105344 0.137308
1681 1 0.99996 0.049651 0.0502221 0.023178 -3.32617 -0.0232851 0.0945467 0.00991022
1757 1 0.949777 0.0499346 0.0500637 0.010516 -3.32827 0.0603851 0.0308902 0.0088854
163 1 0.0252646 0.099474 0.0249138 0.0250661 -3.32395 -0.021344 0.0302908 0.0730207
168 1 0.0499743 0.124869 0.0253594 0.0324684 -3.31945 0.0530088 -0.0162971 -0.0987966
245 1 0.0502453 0.149616 -1.49431e-05 0.0256092 -3.31972 0.0228897 0.0500251 0.0350178
1762 1 0.0253374 0.124739 0.0500474 0.013274 -3.32811 -0.0769138 0.0345814 0.0778207
162 1 0.0252143 0.124823 0.000101419 0.00964462 -3.31113 0.0141639 0.0060019 0.0621486
167 1 0.0753308 0.0998859 0.0251533 0.0167181 -3.31839 -0.0818085 0.0404602 -0.0855971
172 1 0.100586 0.124718 0.0248693 0.0326477 -3.3209 -0.0761562 0.0511142 0.0422955
1766 1 0.0754105 0.124904 0.0498985 0.0185076 -3.3156 -0.0271971 -0.0352755 -0.0198529
1769 1 0.100115 0.0995601 0.0498625 0.0303283 -3.30918 0.0369064 0.132659 0.0657224
166 1 0.0751497 0.124667 0.000244635 0.0168222 -3.33149 0.0398486 0.0230908 -0.0618703
173 1 0.150046 0.0993465 0.000100725 0.0529269 -3.33389 0.0541741 0.158531 -0.0232537
171 1 0.125396 0.0997911 0.025155 0.0244915 -3.31429 -0.0437183 0.00620071 -0.102288
176 1 0.150378 0.124769 0.0251108 0.0106181 -3.32971 -0.0254427 0.0109182 -0.0842963
174 1 0.175458 0.124883 -0.000167388 0.0165272 -3.32786 -0.129273 0.00234891 0.0108488
253 1 0.150465 0.149927 0.000167008 0.0260922 -3.33248 -0.0553 0.0199675 -0.0456517
180 1 0.200107 0.125205 0.0247097 0.0313239 -3.31986 0.0298577 -0.106787 0.0669601
179 1 0.224918 0.0999073 0.0249592 0.0194813 -3.32482 0.00599191 0.048217 0.0171653
1778 1 0.225037 0.125263 0.0501367 0.0258493 -3.32061 -0.0132813 -0.135454 -0.0100075
178 1 0.22549 0.124882 8.03551e-06 0.0181488 -3.32749 -0.00210831 0.0269073 -0.0121234
183 1 0.275218 0.0998621 0.0246797 0.0404078 -3.3197 0.00611149 0.0637401 0.160533
184 1 0.250307 0.12491 0.0253353 0.0264441 -3.32607 0.0152092 0.00185992 -0.0864716
182 1 0.275117 0.12478 -0.000112919 0.0163886 -3.32951 0.0327811 0.106145 0.0699361
181 1 0.250292 0.0999167 0.000174762 0.0165089 -3.31292 -0.0795831 -0.0482541 -0.0458671
263 1 0.275261 0.149973 0.0251529 0.00447736 -3.31925 -0.0278032 -0.0718044 -0.0185034
1781 1 0.250083 0.100388 0.049995 0.0335314 -3.32473 0.0314592 -0.0927611 -0.0293152
1782 1 0.275339 0.125043 0.0503298 0.0242272 -3.32606 0.0128386 0.034343 -0.024157
187 1 0.324941 0.0999463 0.0248213 0.0300109 -3.3239 0.0954723 0.0566133 0.0732859
1785 1 0.299967 0.100053 0.049826 0.0211459 -3.32152 0.0954247 0.0307817 0.0153373
189 1 0.350271 0.0997978 0.000164725 0.0304442 -3.31454 -0.0906309 0.0660992 -0.0638091
188 1 0.300421 0.125362 0.0251506 0.0306018 -3.33189 -0.0729753 -0.10078 0.000697902
186 1 0.325056 0.125105 0.000100659 0.0129961 -3.31882 0.043483 -0.0299171 0.0268162
192 1 0.350108 0.125015 0.0250245 0.0111304 -3.32082 -0.114845 0.0386731 0.0540028
267 1 0.32501 0.150452 0.0254163 0.0450934 -3.31706 0.111698 -0.102539 -0.0753601
1786 1 0.325412 0.125209 0.0503219 0.0256795 -3.32392 -0.0974888 -0.0972052 -0.0187576
265 1 0.300386 0.149887 -6.84188e-05 0.019469 -3.32364 -0.0823296 0.0198318 0.00735674
1789 1 0.349797 0.0998281 0.0501261 0.0289357 -3.32961 0.0421518 0.0233464 -0.0141784
1865 1 0.300296 0.150133 0.0502611 0.0136813 -3.3154 -0.0304617 -0.0447048 0.0276403
269 1 0.350263 0.15013 7.1811e-05 0.0146383 -3.32497 -0.0303134 0.0181652 0.0560572
196 1 0.400513 0.125067 0.024778 0.0396468 -3.31788 -0.0677978 -0.0648021 0.0659165
1793 1 0.400263 0.100154 0.0499683 0.0150918 -3.32437 -0.0215461 -0.0485888 -0.0657682
1790 1 0.375192 0.124752 0.0500535 0.0230325 -3.32209 -0.0628109 0.0214341 -0.0341262
273 1 0.399595 0.150076 -0.000130815 0.0358091 -3.32035 0.0588542 0.0203123 0.0367742
200 1 0.44971 0.124957 0.0250607 0.035477 -3.32253 0.116802 0.0688423 -0.0370079
275 1 0.425018 0.150051 0.0250202 0.00956403 -3.31663 -0.0487406 0.0408898 -0.012452
277 1 0.449933 0.150271 0.000103538 0.0136735 -3.31739 0.0515521 -0.0838733 -0.0480625
1794 1 0.425034 0.12518 0.050253 0.0270746 -3.316 0.0290217 -0.0515975 -0.0367856
194 1 0.425151 0.125317 -0.000190937 0.0216547 -3.31065 0.0239874 -0.0455155 0.0414609
199 1 0.475316 0.100173 0.0247869 0.0217939 -3.33074 -0.0830222 -0.0420789 -0.00486504
204 1 0.500162 0.125309 0.0249553 0.01789 -3.31745 -0.0669783 -0.0775818 0.0058723
202 1 0.524843 0.125078 0.000104017 0.0207434 -3.31234 0.0229905 0.00118354 -0.134384
283 1 0.524522 0.150418 0.0248845 0.038503 -3.3173 0.104541 -0.0742112 0.0275893
1798 1 0.474846 0.125347 0.0500315 0.0356535 -3.30935 0.0954099 -0.0559824 -0.0760763
208 1 0.549622 0.125062 0.0246846 0.0184424 -3.32104 0.039182 0.0144624 0.0963072
1885 1 0.549624 0.150262 0.0500453 0.0086652 -3.32354 -0.012654 -0.0563645 0.0227565
287 1 0.574496 0.149919 0.0249507 0.0188289 -3.31477 0.0647143 0.0192808 -0.0321427
206 1 0.574854 0.125162 -0.000285161 0.0100155 -3.32182 -0.045442 -0.0353001 0.0356503
212 1 0.599929 0.125036 0.0248024 0.0106686 -3.32849 -0.0136543 0.0240596 0.0599882
291 1 0.625368 0.15004 0.024785 0.0443351 -3.32556 -0.156596 0.0500127 0.049741
210 1 0.625217 0.124727 -2.02746e-05 0.031562 -3.32203 -0.0192124 0.106366 -0.0411818
215 1 0.674838 0.100045 0.0251231 0.0131857 -3.3182 0.00166633 0.0327083 -0.0392857
216 1 0.649864 0.124946 0.0251018 0.00972682 -3.32236 0.0348636 -0.0274244 0.00806114
220 1 0.699828 0.124732 0.0249771 0.0251095 -3.32881 -0.0436514 0.0860428 0.0710644
214 1 0.674697 0.125325 -0.000225712 0.0250205 -3.32272 0.0173967 -0.0831947 0.0781898
224 1 0.749938 0.12481 0.0250734 0.0099448 -3.32821 0.0119524 0.0494379 0.0155387
299 1 0.724623 0.150042 0.0250763 0.0196898 -3.32381 0.0359578 -0.0628039 -0.0304234
223 1 0.775156 0.100048 0.0250949 0.0230467 -3.32566 -0.0550199 -0.0422734 0.0475433
228 1 0.800038 0.124778 0.0249547 0.0109556 -3.3186 -0.0191619 0.10794 0.0518207
225 1 0.799767 0.0997434 -7.55971e-05 0.0271333 -3.30961 0.0489038 0.0265013 0.0718191
1822 1 0.775103 0.124845 0.050004 0.00865412 -3.3255 -0.049126 -0.0241001 -0.0199994
227 1 0.824903 0.1003 0.0248969 0.0360202 -3.33218 -0.0152416 -0.115986 0.105246
232 1 0.850302 0.125072 0.024983 0.0169447 -3.31545 -0.0596633 0.0236119 0.0358053
230 1 0.875254 0.12503 3.00419e-05 0.0104604 -3.32935 -0.0275081 0.030438 -0.0299246
235 1 0.924926 0.100218 0.0248245 0.0301545 -3.31888 0.0190068 -0.0393583 0.0574596
236 1 0.899705 0.125288 0.0253536 0.0588743 -3.30589 0.0788631 -0.0850246 -0.105398
1913 1 0.900354 0.150036 0.0499897 0.0283284 -3.32194 -0.150656 -0.0374475 0.0578838
1834 1 0.924928 0.124681 0.0498802 0.0264385 -3.31794 0.0154541 0.0429323 0.0844722
313 1 0.900468 0.150235 7.75839e-05 0.036955 -3.30898 -0.104843 -0.0527032 0.0322606
234 1 0.924824 0.125088 9.67554e-06 0.0283138 -3.3255 0.0978319 -0.0307277 0.118239
239 1 0.975101 0.100044 0.0251791 0.0146781 -3.31721 0.0450738 -0.117976 -0.0859268
161 1 1.00023 0.0999572 -0.000187422 0.0278478 -3.31399 0.0517221 -0.0605578 0.101689
164 1 1.00032 0.124687 0.0254055 0.0364677 -3.32703 0.00709756 0.0344959 -0.0632522
240 1 0.950408 0.124774 0.0251083 0.0291778 -3.31826 -0.0812947 0.0763555 -0.0656735
238 1 0.975333 0.124529 0.000171981 0.0184854 -3.31743 -0.0290764 0.0870665 -0.00861832
243 1 0.025244 0.149962 0.0247399 0.0267768 -3.32924 -0.0609469 -0.00928428 0.101545
248 1 0.0499193 0.175257 0.0251498 0.0390068 -3.32421 0.059256 -0.101967 -0.000651243
244 1 -4.40739e-05 0.174741 0.0248851 0.0143749 -3.32622 0.00398207 0.0627613 0.0237792
1842 1 0.0249892 0.174869 0.0500013 0.00795742 -3.32174 0.014006 -0.00160948 -0.00157922
1925 1 0.0501794 0.199874 0.0496314 0.0530583 -3.32283 0.0289812 -0.016448 0.147942
1841 1 -7.09414e-05 0.149998 0.050159 0.0177942 -3.32796 0.077687 -0.0504743 -0.0669139
247 1 0.075321 0.150002 0.0254003 0.0301209 -3.32966 -0.028688 -0.03091 -0.166125
1849 1 0.100017 0.149871 0.0503188 0.0214418 -3.30857 0.127165 -0.0243967 -0.092574
252 1 0.100097 0.175026 0.0248766 0.0252404 -3.31826 0.0096836 -0.024661 0.0638911
327 1 0.0752748 0.200049 0.0251709 0.0217464 -3.31298 -0.0328834 -0.00225348 -0.0293502
1846 1 0.0756691 0.174854 0.0501575 0.0439724 -3.32015 -0.125803 0.023741 -0.00596837
251 1 0.125073 0.150094 0.0248956 0.0231376 -3.32523 0.0120814 -0.0354028 0.0532079
255 1 0.175343 0.149867 0.0252315 0.0142832 -3.30396 -0.0136583 0.013042 -0.13225
256 1 0.150371 0.174643 0.0251316 0.0318007 -3.32775 -0.106478 0.0914287 -0.0348025
254 1 0.175302 0.175194 0.000136452 0.0140181 -3.3219 -0.0171146 -0.0354308 0.0125461
250 1 0.124591 0.175035 -0.000211752 0.0578522 -3.31481 0.227267 -0.0417916 0.0940519
259 1 0.225375 0.14975 0.0249094 0.0180431 -3.31919 0.0182574 0.0807149 -0.0240383
260 1 0.20011 0.174838 0.0252999 0.0181197 -3.32232 -0.00502846 0.0155309 -0.10275
1858 1 0.22485 0.174928 0.0499658 0.0262347 -3.32136 0.0787991 0.00927278 0.0448235
1937 1 0.199941 0.200166 0.0501662 0.0177255 -3.30785 0.103974 -0.078376 -0.0442056
264 1 0.250481 0.174784 0.0251886 0.0283578 -3.32383 -0.100232 6.87644e-05 -0.00135855
343 1 0.274907 0.199645 0.0244754 0.0902806 -3.3153 0.0603233 0.110404 0.109251
1862 1 0.275645 0.17508 0.0503766 0.0737184 -3.30315 -0.179657 -0.0694502 -0.0801896
268 1 0.299793 0.174818 0.0251057 0.0414237 -3.30336 0.100588 0.0776879 0.00609238
272 1 0.350195 0.175138 0.0254597 0.0241302 -3.32006 0.0887976 -0.0613439 -0.0193845
347 1 0.3253 0.199821 0.0251509 0.0244477 -3.32065 -0.0273783 0.0679747 -0.0250363
1945 1 0.299883 0.19979 0.0499618 0.0250417 -3.32876 0.0693707 0.1424 0.0269143
1866 1 0.325117 0.175293 0.0502198 0.0195586 -3.31879 -0.0368647 -0.0711259 0.0199813
349 1 0.349993 0.200156 -0.000379777 0.0331507 -3.30596 -0.0632605 -0.0519591 0.10988
271 1 0.375326 0.149815 0.0251109 0.0231138 -3.3209 -0.0954348 0.0810767 0.0265618
276 1 0.400056 0.17508 0.0253384 0.0181648 -3.32768 -0.0569277 0.0427951 -0.0497375
351 1 0.374702 0.200336 0.0249855 0.0342599 -3.33452 0.0754372 -0.0423203 0.0565628
1874 1 0.425076 0.175235 0.0499544 0.00696312 -3.32235 -0.0261254 -0.0270112 0.0504245
280 1 0.449968 0.175204 0.0248702 0.00939905 -3.31664 0.023114 -0.00946941 0.0369947
1877 1 0.449907 0.150138 0.0498542 0.00650374 -3.32532 0.0355193 0.043978 0.0498091
279 1 0.475226 0.150157 0.0248791 0.0211686 -3.32644 -0.0981676 -0.039089 0.042414
284 1 0.499802 0.175185 0.0252619 0.0281799 -3.31053 -0.0321153 0.0448065 -0.163784
363 1 0.524851 0.19999 0.0248161 0.0131294 -3.31542 -0.0109009 7.27696e-05 -0.0423412
1878 1 0.474956 0.175231 0.0497811 0.0182241 -3.31443 -0.0825776 -0.0741089 0.0768461
1881 1 0.500041 0.15 0.0501679 0.0172922 -3.31843 -0.0038759 0.030147 0.0233101
278 1 0.474819 0.175092 -0.000146396 0.0111641 -3.32647 0.0463161 0.0693023 0.0351294
282 1 0.524913 0.174995 -3.49346e-05 0.00720917 -3.33089 -0.0649238 0.0268967 -0.00969488
285 1 0.549729 0.150064 7.18506e-05 0.0118932 -3.32181 0.0158669 -0.0270857 -0.0733563
288 1 0.550029 0.175195 0.0250596 0.0256861 -3.31386 -0.0150033 -0.0227359 -0.0591778
1886 1 0.574429 0.175338 0.0501807 0.0361551 -3.31298 0.107745 -0.0193471 -0.0267648
367 1 0.574624 0.20049 0.0247353 0.0368047 -3.32363 0.0212958 -0.0332093 -0.00215959
1965 1 0.549794 0.200297 0.0495432 0.0247678 -3.31535 0.00444622 0.0164947 0.093998
292 1 0.599294 0.175115 0.02508 0.0473903 -3.33288 0.0888264 -0.0408203 -0.0813958
371 1 0.624821 0.199967 0.0247737 0.00958729 -3.32408 0.00708581 -0.0094001 -0.0203856
289 1 0.60006 0.149673 -0.000174804 0.0289582 -3.32932 0.00300788 0.0851672 0.0685786
290 1 0.6248 0.17508 -0.000230092 0.0129481 -3.32818 -0.0408789 -0.0534537 0.115809
295 1 0.674902 0.150008 0.0248893 0.0068669 -3.32435 0.0039004 0.0147303 0.0280326
296 1 0.65001 0.175158 0.024955 0.0158597 -3.32374 -0.01308 -0.0303631 -0.00503353
293 1 0.65003 0.150223 4.91632e-05 0.0187618 -3.31599 -0.0567553 -0.020477 -0.0838167
300 1 0.699903 0.175011 0.0251398 0.0100102 -3.33402 -0.0780927 0.0346506 -0.0324111
375 1 0.674587 0.199997 0.0252845 0.0338379 -3.32879 0.0697338 0.00196915 -0.0546935
294 1 0.6748 0.175215 -0.000465642 0.0439264 -3.31998 0.0178889 -0.0603258 0.0995569
1894 1 0.674655 0.174975 0.0503605 0.027461 -3.32709 0.0629138 0.0685906 -0.0654673
304 1 0.749902 0.174826 0.024926 0.00906294 -3.32804 -0.0133663 0.0766474 0.0349327
298 1 0.725037 0.174874 5.36194e-05 0.0120205 -3.3153 -0.00981047 0.0322352 -0.0245424
305 1 0.800261 0.149831 -4.93847e-05 0.0081716 -3.3263 -0.00897098 -0.0167282 0.0561086
303 1 0.774819 0.150054 0.0250442 0.0203426 -3.32706 0.0857983 -0.0838802 -0.0688495
308 1 0.799987 0.174892 0.0251279 0.00827357 -3.32207 -0.0317096 -0.031414 -0.0149731
302 1 0.775294 0.174872 -1.53973e-05 0.0120551 -3.32644 -0.0638526 -0.0227699 -0.0082584
307 1 0.825229 0.149692 0.0249643 0.0195203 -3.31822 -0.0996804 -0.00614045 0.0503259
311 1 0.875153 0.149986 0.0249185 0.0185476 -3.31974 -0.0163477 0.0527665 0.0440708
309 1 0.849742 0.150213 2.98376e-05 0.0503026 -3.31851 0.0513213 -0.119852 -0.039533
306 1 0.824716 0.174843 1.16687e-05 0.024288 -3.3241 0.122907 0.0555083 0.00519079
312 1 0.849855 0.174504 0.0253354 0.0521393 -3.32025 -0.030091 0.137719 -0.103261
310 1 0.874917 0.174643 0.000100087 0.0335238 -3.33465 0.0780018 0.10147 0.00796101
1909 1 0.850171 0.150009 0.0501159 0.00960378 -3.33062 -0.023873 -0.0439761 -0.00723597
1906 1 0.824609 0.174755 0.0501199 0.0288271 -3.3162 0.113131 -0.0111595 -0.0335734
1910 1 0.874841 0.175336 0.0498978 0.0506354 -3.31688 0.0815829 -0.150198 0.0217658
315 1 0.924949 0.149678 0.0252095 0.0235492 -3.30479 0.0408157 0.01115 -0.082259
316 1 0.900491 0.174972 0.0252571 0.0332495 -3.33201 -0.0907354 0.0217318 -0.0515426
1914 1 0.925042 0.174634 0.0503108 0.0247937 -3.31877 0.0913937 0.134989 -0.0152526
1917 1 0.949707 0.149688 0.0497835 0.0346835 -3.32806 0.0962796 0.0407751 0.114469
319 1 0.975342 0.149842 0.0249578 0.0226679 -3.31485 -0.0531676 -0.0223123 0.0793347
320 1 0.949769 0.174817 0.0249428 0.0198217 -3.32598 0.0612434 0.032094 0.0532751
1997 1 0.949786 0.200032 0.0502233 0.0157838 -3.31867 0.0550864 -0.0486976 0.0168133
323 1 0.02477 0.199957 0.0252021 0.0178113 -3.31124 0.00233415 0.0182224 -0.0958508
328 1 0.049761 0.22501 0.0250015 0.0241844 -3.32089 0.0813176 -0.0102869 0.046634
324 1 -9.55903e-05 0.225187 0.0251524 0.0115729 -3.3145 0.113354 -0.0374795 -0.0551296
332 1 0.100212 0.225024 0.025151 0.0103189 -3.3241 -0.0349335 0.00999526 0.0216355
326 1 0.0749424 0.224943 0.000452799 0.0202645 -3.32472 0.0715849 0.0228663 -0.0331574
331 1 0.125196 0.199868 0.025234 0.0208351 -3.32646 -0.0581604 -0.0508544 -0.0354898
335 1 0.17506 0.199934 0.0250765 0.00767717 -3.32381 -0.0476239 -0.00470883 -0.00985076
333 1 0.149889 0.20007 0.000104084 0.0128254 -3.33671 0.015032 -0.00489255 -0.0287962
336 1 0.149827 0.224915 0.0249142 0.019649 -3.32635 0.1269 0.00988029 0.0196714
330 1 0.124761 0.225038 6.44824e-05 0.0174696 -3.31507 0.0852072 -0.087214 -0.0256472
415 1 0.17528 0.25006 0.0250575 0.0102177 -3.33178 -0.0590632 -0.0657301 -0.0118507
1934 1 0.175143 0.22486 0.0499025 0.018801 -3.31896 -0.115815 0.0593561 0.0971103
339 1 0.224905 0.199865 0.0250976 0.0142846 -3.32761 0.106741 -0.0146365 0.0697716
340 1 0.199972 0.224887 0.0254061 0.0231588 -3.32339 0.0869017 0.0518202 -0.124094
419 1 0.2253 0.249858 0.0252617 0.0109447 -3.32317 -0.104587 -0.0509962 -0.0392211
1938 1 0.225104 0.225079 0.050347 0.0191636 -3.31802 0.0483189 -0.110598 -0.118881
1941 1 0.250191 0.199501 0.0500882 0.0363903 -3.33487 -0.0533701 0.0938772 -0.0464078
344 1 0.250147 0.224699 0.0250493 0.0134723 -3.32441 -0.00589313 -0.000192462 0.0745448
423 1 0.275143 0.249814 0.0254499 0.0415356 -3.32967 0.0313407 0.0312007 -0.171113
1942 1 0.27493 0.224802 0.0503254 0.0210069 -3.31692 0.00908352 -0.00830949 -0.0820847
342 1 0.274765 0.225123 -2.00717e-07 0.0347541 -3.32571 0.115245 -0.0767201 0.0359486
348 1 0.300048 0.22452 0.0253508 0.0629102 -3.33103 -0.0383058 0.0552628 -0.132885
352 1 0.349841 0.225237 0.0251333 0.021174 -3.30874 0.06637 -0.106824 0.00467967
427 1 0.325156 0.249592 0.0248798 0.0364755 -3.32668 -0.0539257 0.136538 0.0303975
2029 1 0.350125 0.250185 0.0504293 0.0439741 -3.31743 0.0378165 -0.0474518 -0.148344
429 1 0.350044 0.249821 -0.00013671 0.0219541 -3.30886 -0.00463048 0.0788592 0.0283231
431 1 0.374719 0.249942 0.0248261 0.0202547 -3.32739 0.0159149 0.0126034 0.0777697
1950 1 0.375128 0.224848 0.0502633 0.026594 -3.32933 -0.0600524 0.0765919 -0.097328