ITEM: TIMESTEP
3250
ITEM: NUMBER OF ATOMS
32000
ITEM: BOX BOUNDS pp pp pp
1.3126527563969417e+00 7.9687347243597912e+01
-4.7369572127761472e-01 8.1473695721272236e+01
-4.7365513540416515e-01 8.1473655135398872e+01
ITEM: ATOMS id type xs ys zs c_csym c_peratom fx fy fz
8 1 0.049918 0.0251857 0.0250972 0.0345871 -3.35458 0.0694864 -0.0434977 -0.0711723
83 1 0.0251472 0.0498848 0.0250476 0.0142976 -3.35263 0.0252279 0.0217226 -0.0181591
1602 1 0.0253034 0.0248854 0.0503838 0.0412976 -3.36633 -0.0513389 -0.0384767 -0.053337
1685 1 0.0506023 0.0502103 0.0496103 0.0698691 -3.3504 -0.128104 -0.0545045 0.117208
4 1 0.00037885 0.02502 0.0253221 0.0341833 -3.35546 -0.0397926 0.0109973 -0.0852288
1681 1 -7.01835e-05 0.0500836 0.049948 0.0237147 -3.36007 0.065736 -0.0274182 0.0644563
1601 1 -2.2124e-05 -0.000407742 0.0499609 0.033904 -3.34984 0.0618529 0.16193 0.0286914
81 1 0.000461257 0.0499635 -0.00010638 0.0337518 -3.3624 -0.107794 -0.0571412 0.0354622
12 1 0.100265 0.0249021 0.0251691 0.0363808 -3.35539 -0.0851885 0.0300195 -0.142207
87 1 0.0753309 0.0499952 0.0249788 0.0132893 -3.35164 0.0126534 -0.0292719 -0.0331931
1606 1 0.0750894 0.0251697 0.0499237 0.0160758 -3.34871 0.0289205 -0.0365959 0.0111612
1689 1 0.100056 0.0497608 0.0502566 0.0192252 -3.35143 0.0129779 0.0712843 0.00838419
6 1 0.0750809 0.0251084 -0.000436434 0.0262847 -3.36009 0.036095 -0.0189714 0.13698
16 1 0.149797 0.0250784 0.025262 0.0399564 -3.35628 0.0813901 0.00249881 -0.0869635
91 1 0.124961 0.0499673 0.0252624 0.0173969 -3.35044 -0.0333541 0.0254732 -0.12843
1610 1 0.124829 0.0249869 0.0498919 0.0243406 -3.3543 0.0810862 -0.0535937 0.104883
1693 1 0.149934 0.0503487 0.0498184 0.0333646 -3.34855 0.0446383 -0.121957 0.0831681
1613 1 0.150196 -0.000220924 0.0494905 0.0401861 -3.36516 0.0341844 0.0823051 0.120298
20 1 0.200005 0.0253638 0.0248568 0.0403447 -3.35478 -0.0079049 -0.0848845 0.0842378
95 1 0.17471 0.0501808 0.0251039 0.0195845 -3.35574 0.0882525 -0.0365723 -0.00057348
1614 1 0.175126 0.0252356 0.050098 0.0260138 -3.35803 -0.0327979 -0.0699093 -0.099549
1697 1 0.200199 0.0500099 0.0501264 0.0140244 -3.3582 0.0151089 0.0585715 -0.046096
1617 1 0.199676 -2.8833e-05 0.0500969 0.0561019 -3.35639 0.0668174 0.0660264 -0.094082
97 1 0.199825 0.0496467 -1.97829e-05 0.0349921 -3.35617 0.036316 0.113147 -0.0249199
24 1 0.249836 0.0248873 0.0248441 0.0155456 -3.35855 0.00988747 0.00418385 0.0496577
99 1 0.225167 0.0499096 0.0248577 0.0106158 -3.34876 0.0030773 0.00295904 0.0476283
1618 1 0.224915 0.0250051 0.0500815 0.0126169 -3.36152 0.0331095 -0.0057921 -0.0588093
1621 1 0.250267 5.77399e-06 0.0502045 0.0258725 -3.35649 0.0588709 0.0817353 -0.0222996
1701 1 0.250049 0.0497859 0.0500783 0.019575 -3.36034 -0.0048507 0.0656958 -0.0248019
101 1 0.250019 0.050202 -0.000250066 0.0176178 -3.34968 -0.00135786 -0.0437425 0.0291787
21 1 0.250301 9.00486e-05 -0.00021463 0.0414802 -3.35006 -0.118494 -0.0110794 0.0393093
103 1 0.274699 0.0499715 0.0249001 0.0296189 -3.35597 0.106875 -0.00495373 -0.00166837
1622 1 0.275303 0.0251417 0.0497576 0.0125626 -3.36258 -0.0521358 -0.0574318 0.0516635
19 1 0.224886 -0.00010303 0.0253217 0.0355957 -3.35709 0.0155636 0.0923681 -0.0708415
23 1 0.27503 0.000117662 0.0247819 0.0122174 -3.34718 0.0485564 0.0231986 0.0810441
28 1 0.300493 0.0249513 0.0248763 0.0312111 -3.35936 -0.0728156 0.0546568 -0.0190261
1705 1 0.299937 0.0499471 0.0498154 0.019953 -3.35893 0.0518351 0.0676793 -0.0354487
1625 1 0.300111 0.000355079 0.0498326 0.0216528 -3.35866 -0.0104252 -0.094744 0.0294754
107 1 0.32507 0.0503658 0.0249446 0.0247161 -3.36216 0.036502 -0.0547764 0.0490285
1626 1 0.325324 0.0249831 0.0499664 0.0135178 -3.36087 0.0217841 0.00318775 -0.0560839
27 1 0.325193 -0.000114114 0.0249642 0.0127575 -3.34801 -0.0155926 0.0867616 0.0154482
32 1 0.350508 0.0250956 0.0249515 0.0288799 -3.35621 -0.103493 -0.0451914 0.0224229
1709 1 0.350338 0.0499961 0.0497549 0.0250284 -3.35068 -0.12134 0.0130325 0.0778528
1629 1 0.350426 -0.000173884 0.0495907 0.0583691 -3.34987 -0.0828504 0.095818 0.120614
111 1 0.374917 0.0501444 0.0250723 0.0153735 -3.34308 0.0881608 -0.0762725 -0.070716
1630 1 0.375137 0.0250818 0.050209 0.0243011 -3.35622 0.0492191 -0.0886743 -0.0909439
30 1 0.374964 0.0248963 -0.000153452 0.0137628 -3.35212 0.0286558 -0.0242143 0.0295764
36 1 0.39983 0.0247578 0.0247205 0.0348909 -3.36619 -0.0227014 0.0239879 0.128714
1713 1 0.399761 0.0501978 0.0500587 0.0215501 -3.36081 0.0697718 -0.0535535 0.00231595
115 1 0.424721 0.0497155 0.025182 0.0265859 -3.35414 0.0290746 -0.00202657 -0.00159854
1634 1 0.424989 0.0251607 0.0500361 0.0196861 -3.35939 -0.0231347 -0.0599454 -0.028813
113 1 0.399916 0.0499175 9.00728e-05 0.00890463 -3.34821 -0.0540824 -0.0119743 0.00278118
34 1 0.424957 0.0249097 0.00010749 0.0124364 -3.3455 0.0122527 -0.0454805 0.00973809
40 1 0.450274 0.0248744 0.0249064 0.023382 -3.35216 -0.0503335 -0.0152492 0.0733948
1717 1 0.45018 0.0498137 0.0501313 0.0123337 -3.35585 -0.0188595 -0.00659397 -0.0314639
38 1 0.474864 0.02432 -0.000234712 0.0460667 -3.36147 0.0552439 0.0886374 0.0512424
119 1 0.475382 0.0494792 0.025017 0.0285191 -3.35206 -0.0801054 0.0290929 0.00383428
1638 1 0.475024 0.0248868 0.0500822 0.0137501 -3.35503 0.0291685 -0.00427443 0.0246281
1721 1 0.50027 0.0497171 0.0499303 0.0129916 -3.36239 0.0397651 0.0789 0.000784063
121 1 0.500205 0.049728 3.29349e-05 0.0122111 -3.34642 -0.0378499 -0.0479876 -0.0286
39 1 0.475151 -0.0001988 0.0252267 0.0118347 -3.35977 0.0364262 0.00455652 -0.0720976
1641 1 0.500309 1.81082e-05 0.0502002 0.0177523 -3.35467 0.0060989 0.00370815 -0.0285731
117 1 0.449849 0.0495301 0.000263847 0.0189557 -3.35892 0.0852418 0.0325678 -0.0656226
44 1 0.500095 0.02463 0.0250106 0.0100541 -3.35406 -0.00316018 0.0120149 -0.00308869
123 1 0.525117 0.0498815 0.0247492 0.0240772 -3.36283 0.0235247 0.00284465 0.134158
1642 1 0.525372 0.02472 0.0499863 0.0173505 -3.35219 -0.0521253 0.0558525 0.0277834
48 1 0.550543 0.0246342 0.0253324 0.0523958 -3.35136 -0.0741975 0.0557044 -0.0843746
1725 1 0.549974 0.0498349 0.0500847 0.0132836 -3.35569 0.0384085 0.0167109 -0.00366638
42 1 0.525049 0.0249018 0.000211061 0.0134198 -3.35996 0.0815004 -0.0367312 -0.0392168
127 1 0.575067 0.0501665 0.0249229 0.0395562 -3.34724 -0.0110221 -0.126855 0.0312181
1646 1 0.574798 0.0247714 0.0502433 0.0204894 -3.36007 0.102893 -0.0027224 -0.00133251
52 1 0.599796 0.0246569 0.0249226 0.0129879 -3.35711 -0.0182487 0.038379 0.0219805
1729 1 0.599866 0.049688 0.0497182 0.0421202 -3.34995 0.0306263 0.00316704 0.159181
46 1 0.574818 0.0246203 4.56495e-05 0.0269524 -3.3514 0.0513596 0.0427644 0.0341459
129 1 0.599912 0.049783 -7.45761e-05 0.0218679 -3.35466 0.0468519 0.0270814 0.0572877
131 1 0.624909 0.0496747 0.0249889 0.0169378 -3.35462 0.0514936 0.0263208 -0.0122815
1650 1 0.624842 0.0250512 0.0499266 0.0130486 -3.35327 0.0187223 -0.00535733 0.00955206
51 1 0.624699 -0.000248355 0.0248892 0.0215201 -3.35141 0.0656114 0.0679309 0.0254281
56 1 0.650123 0.0249562 0.025106 0.00743383 -3.36567 -0.0153481 0.00489789 -0.0259462
1733 1 0.650197 0.0502265 0.0500095 0.0265938 -3.35603 -0.0519041 -0.0763764 0.0378035
50 1 0.625184 0.024812 6.54255e-05 0.013788 -3.35355 -0.0109532 0.0691648 0.0044513
133 1 0.650442 0.0502681 1.19795e-05 0.0457525 -3.34993 -0.0611153 -0.126729 0.038097
135 1 0.675182 0.0499904 0.0252154 0.0110611 -3.34825 0.0177738 -0.0545462 -0.0786713
1654 1 0.674975 0.025016 0.0501503 0.00931305 -3.35388 0.0334405 -0.00833835 -0.0378835
60 1 0.700465 0.025073 0.0251267 0.0208705 -3.35279 -0.104318 -0.0135445 0.000295695
1737 1 0.700085 0.0498394 0.0496517 0.042302 -3.36174 0.0745949 0.0398289 0.121016
137 1 0.700189 0.04994 4.25287e-05 0.00586722 -3.35221 -0.0419136 0.0248716 0.0478895
139 1 0.725659 0.0499607 0.0248138 0.0372789 -3.35341 -0.0799858 -0.00053346 0.0841545
1658 1 0.725106 0.0248967 0.0501454 0.0111763 -3.35266 -0.00188127 0.0454821 -0.0271412
59 1 0.725009 2.76405e-05 0.0253198 0.01881 -3.34696 -0.0279801 -0.050375 -0.0516885
64 1 0.750154 0.0246339 0.0249639 0.0300616 -3.35026 -0.000335952 0.117508 0.00987521
143 1 0.775103 0.0501282 0.0251054 0.0163261 -3.35374 -0.037295 -0.0445027 -0.0811205
1662 1 0.774972 0.0250637 0.0499886 0.0148934 -3.35356 0.0463103 -0.0549638 0.0127108
1741 1 0.75034 0.0498158 0.0499676 0.0180219 -3.35886 -0.112265 0.0385439 0.0283209
63 1 0.774996 -7.89222e-05 0.0250419 0.00445127 -3.35524 0.0388259 0.0246074 0.00893053
61 1 0.749739 -5.69683e-05 0.000117246 0.0210231 -3.35779 0.104452 0.0188015 -0.0530802
141 1 0.75021 0.0502702 -0.000233348 0.029513 -3.347 -0.0226465 -0.0814923 0.0382263
62 1 0.774748 0.0250363 1.20165e-05 0.0240035 -3.35619 0.0666546 -0.0546101 0.0406581
68 1 0.799941 0.0255538 0.0251281 0.0578972 -3.35224 -0.0130932 -0.20464 -0.037403
147 1 0.825034 0.0500021 0.0251722 0.0226395 -3.34121 0.00905097 0.0232917 -0.111773
1666 1 0.824986 0.0248256 0.050029 0.0167685 -3.34725 0.084758 -0.00559995 -0.0632031
1745 1 0.800369 0.0498617 0.049903 0.0188453 -3.3459 -0.0565103 0.0456361 0.0854015
1665 1 0.800069 -3.63031e-05 0.0501148 0.0125973 -3.35773 -0.0538904 0.00284811 -0.0499063
67 1 0.82499 7.22743e-05 0.0248573 0.0161735 -3.35425 -0.0171491 0.021106 0.069375
145 1 0.80019 0.049795 -3.06019e-05 0.0369211 -3.35676 -0.02742 0.0840842 0.0306869
71 1 0.874789 6.57924e-05 0.0249151 0.0134583 -3.36824 0.0183084 0.0460285 0.0382354
72 1 0.849872 0.0251635 0.0248758 0.0123019 -3.35945 0.0898713 -0.0611077 0.0730789
151 1 0.874867 0.0502357 0.024896 0.0152354 -3.35438 0.0390452 -0.0321062 -0.0386042
1670 1 0.875233 0.0252679 0.0501414 0.0371329 -3.35706 -0.115372 -0.0742294 -0.135386
1749 1 0.849914 0.0502934 0.0495576 0.025945 -3.35753 0.0423526 -0.0484566 0.0756343
1669 1 0.84997 -0.000304078 0.0501677 0.0287623 -3.36607 0.0127789 0.0622826 -0.0812751
76 1 0.89978 0.02534 0.02489 0.0276464 -3.36219 0.0394825 -0.12645 0.0578346
155 1 0.924846 0.0499309 0.0252561 0.0180016 -3.35849 0.0281449 0.0404249 -0.0435741
1674 1 0.925028 0.0250256 0.0499843 0.00375464 -3.36201 -0.0119961 -0.00498738 -0.0224009
1753 1 0.899808 0.050249 0.0501642 0.020315 -3.34915 0.0344618 -0.0332388 -0.0488915
153 1 0.900232 0.0499764 -0.000383149 0.0296174 -3.35256 -0.041347 0.08034 0.0728411
1673 1 0.899974 -0.000296136 0.0500868 0.0413874 -3.35095 -0.024158 0.126761 -0.138925
73 1 0.899776 -7.58949e-05 -0.000421099 0.034098 -3.35573 0.0719051 0.0747237 0.112025
75 1 0.924861 -9.63082e-05 0.0248704 0.00958834 -3.37064 -0.0201517 0.0572583 0.0218365
78 1 0.974744 0.0250185 0.000190693 0.0231396 -3.35931 0.146242 0.0403202 -0.0427193
80 1 0.950011 0.0248984 0.0251063 0.00587123 -3.34895 -0.0296506 0.0262809 0.0326823
159 1 0.975036 0.0500833 0.0251442 0.0118979 -3.35445 0.0307134 -0.064754 -0.0633324
1678 1 0.975282 0.0249351 0.0496685 0.0327939 -3.35416 -0.0301107 0.00501764 0.116563
1757 1 0.950136 0.0500555 0.0501017 0.010847 -3.36012 -0.0384771 -0.0268067 0.0180943
79 1 0.975205 0.000121524 0.0247904 0.0136125 -3.35177 -0.0336859 -0.0557205 0.0284253
88 1 0.0502409 0.0749381 0.0248434 0.00713505 -3.3477 -0.000844378 0.0237914 -0.00976701
163 1 0.0250968 0.0999468 0.0249694 0.00844914 -3.35631 -0.0062675 0.044392 -0.0433433
1682 1 0.0251611 0.0751042 0.0494958 0.0303008 -3.36057 -0.040953 -0.0621996 0.123164
1765 1 0.0502878 0.099859 0.0497865 0.0171688 -3.35391 -0.0354429 0.0975427 0.0285155
1761 1 4.28958e-05 0.100233 0.0497638 0.0334263 -3.35132 0.0309324 -0.104363 0.0304486
161 1 -0.000376473 0.0999824 0.000193136 0.0297931 -3.35435 0.11661 0.0460262 -0.0372246
92 1 0.0999013 0.0749534 0.0253678 0.0251397 -3.35621 0.0619509 -0.0120076 -0.0404283
167 1 0.0751105 0.0999276 0.0249515 0.00849975 -3.35408 -0.0459269 0.0444483 0.0537757
1686 1 0.0751337 0.0749966 0.0501346 0.0135544 -3.3509 0.0481598 0.0273518 -0.0172909
1769 1 0.100263 0.100397 0.0501465 0.0445246 -3.35453 -0.0427486 -0.124362 -0.0100343
169 1 0.099882 0.0997431 0.000316971 0.0284196 -3.3427 0.0766851 0.0399459 -0.0944857
86 1 0.0754018 0.0752388 -5.61437e-05 0.0381852 -3.34068 -0.0657267 -0.0540494 0.0262827
96 1 0.149991 0.0748676 0.0250818 0.0140918 -3.34837 0.0133287 0.0778009 -0.0558077
171 1 0.125026 0.099859 0.0250771 0.0109053 -3.35102 0.0130374 0.0144642 0.0255242
173 1 0.150014 0.100145 4.08576e-05 0.0132817 -3.35275 -0.0256759 -0.0217997 0.010467
1690 1 0.125164 0.0749208 0.0499446 0.00994072 -3.35808 -0.0575071 0.057735 0.0727395
1773 1 0.150384 0.0999907 0.0498345 0.0243406 -3.35072 -0.11928 0.0355048 0.0355047
100 1 0.200213 0.0746962 0.0250538 0.0291613 -3.36287 -0.0634731 0.0564456 0.00287389
175 1 0.174946 0.100057 0.0249141 0.012013 -3.35617 0.0382719 0.0187937 0.0106165
1694 1 0.175112 0.0754201 0.0501067 0.0416136 -3.34898 0.0697486 -0.115573 -0.0714354
1777 1 0.20022 0.100157 0.0495979 0.0239216 -3.35644 -0.0128267 0.00596308 0.0514128
94 1 0.174947 0.075014 2.43769e-05 0.00479469 -3.35591 0.0108314 0.00250092 0.0348041
104 1 0.250247 0.0748174 0.0249199 0.029106 -3.34364 -0.0902065 0.0409891 0.0639875
179 1 0.225403 0.10014 0.0250378 0.0159164 -3.35405 -0.0361531 -0.0053824 0.0332018
1698 1 0.225156 0.0752459 0.0498242 0.0183116 -3.36452 0.0362926 -0.0761002 0.0597259
1781 1 0.250384 0.100328 0.0501487 0.0220591 -3.35215 -0.0808236 0.00562559 -0.0348898
183 1 0.274876 0.099889 0.0254728 0.0583218 -3.34506 0.0552894 0.139015 -0.0942347
1702 1 0.274881 0.0752777 0.0498247 0.0262355 -3.35188 0.0555318 -0.106251 0.0642626
181 1 0.24986 0.100096 0.000303378 0.0224225 -3.35864 0.0670949 0.0206355 -0.091301
108 1 0.299909 0.0752716 0.0250155 0.0127303 -3.35451 0.0142736 -0.0542366 0.0558117
1785 1 0.299935 0.100451 0.0503103 0.0462785 -3.3524 0.026388 -0.117153 -0.0683057
187 1 0.325203 0.09977 0.0252376 0.0183387 -3.36113 -0.0484743 0.0263424 -0.0183048
1706 1 0.324929 0.0752418 0.0502612 0.0275873 -3.3682 0.0155015 -0.0875045 -0.0484265
112 1 0.350424 0.0750774 0.0251825 0.0263252 -3.35371 -0.13339 -0.000411011 -0.0664145
1789 1 0.350284 0.0999159 0.050166 0.0113813 -3.35393 -0.0436749 -0.0429101 0.0139716
189 1 0.350028 0.099939 5.47414e-05 0.0135452 -3.35309 0.0498053 -0.0481514 0.0299636
191 1 0.375404 0.0998214 0.0250226 0.0158359 -3.35483 -0.0205726 0.0363214 -0.0468095
1710 1 0.375188 0.074806 0.0500047 0.0156249 -3.35018 0.0381552 0.0955784 0.0595941
110 1 0.374953 0.0748754 -6.13927e-05 0.0109842 -3.35535 0.0646792 0.0478511 0.0215965
116 1 0.399924 0.0750375 0.0246223 0.0327046 -3.3525 0.0530679 -0.00917818 0.0836533
1793 1 0.400476 0.0999773 0.0497814 0.0240493 -3.36255 -0.0352854 -0.00198636 0.0549826
193 1 0.400342 0.10013 -0.00026476 0.0348045 -3.3601 -0.084481 -0.062409 0.0681544
195 1 0.425358 0.0998864 0.0249619 0.0234586 -3.35137 -0.0554766 -0.0371436 -0.0432173
1714 1 0.425246 0.0748417 0.049696 0.0267801 -3.35815 -0.0783896 -0.0219186 0.101424
114 1 0.424823 0.0744177 -3.15487e-05 0.0360295 -3.34798 0.0473098 0.134748 0.0669584
120 1 0.449915 0.0743767 0.0249383 0.0286945 -3.35588 0.0684272 0.0786736 0.00527327
1797 1 0.449847 0.0998653 0.0499142 0.0117712 -3.34511 0.0435176 -0.0293973 0.00133437
199 1 0.474714 0.0999974 0.0249563 0.0321052 -3.36448 0.0177797 -0.0276118 -0.0174891
1718 1 0.475075 0.074879 0.0500804 0.0110302 -3.35887 0.00956158 -0.0106017 -0.0671636
1801 1 0.500069 0.0999819 0.0497816 0.0110598 -3.35872 -0.0290653 -0.0286397 0.073897
124 1 0.499642 0.0746652 0.0247571 0.0556958 -3.35451 0.132878 0.0631527 0.130819
203 1 0.525108 0.099847 0.0249378 0.0138614 -3.35685 0.0134064 -0.0143355 -0.00541261
1722 1 0.525351 0.0752665 0.049956 0.0283698 -3.35884 -0.0963001 -0.101033 -0.046376
122 1 0.525179 0.0747144 8.45937e-05 0.00858817 -3.35704 0.0027547 0.0129851 0.0232455
128 1 0.550416 0.0750336 0.0252119 0.0347551 -3.35726 -0.0747089 -0.0149211 -0.0619755
1805 1 0.550153 0.100107 0.0500554 0.0101274 -3.35537 0.0209933 6.3299e-05 -0.0338825
205 1 0.550018 0.0999097 -4.84566e-05 0.00729263 -3.35125 -0.0785378 0.00823634 0.0324988
207 1 0.574854 0.100161 0.0244742 0.0804848 -3.35314 0.0484923 -0.043462 0.129232
1726 1 0.575141 0.074741 0.0500578 0.0218067 -3.34578 -0.0741999 0.0429174 0.0484633
132 1 0.59992 0.0746324 0.0256924 0.113411 -3.3514 0.0373164 0.110639 -0.258502
1809 1 0.59954 0.0999921 0.0496357 0.0776799 -3.35509 0.135411 0.0116159 0.0552701
126 1 0.575282 0.0749933 -0.000249203 0.0488296 -3.35731 0.0083365 0.0301041 0.108579
211 1 0.625266 0.0995914 0.0251052 0.0387944 -3.35609 -0.0708358 0.0362992 0.00865409
1730 1 0.625077 0.0749577 0.0500671 0.0145177 -3.36155 -0.00562948 -0.0152283 0.0739558
136 1 0.650346 0.0745971 0.0250991 0.0311538 -3.34957 -0.0582854 0.105227 0.0233156
1813 1 0.649889 0.10001 0.0501707 0.0200424 -3.36402 0.106865 -0.0622757 0.00994516
213 1 0.649696 0.0998918 3.29916e-05 0.0281372 -3.36024 0.079418 -0.0053589 0.0485549
215 1 0.675175 0.0997993 0.0252237 0.0188503 -3.35787 -0.0743184 0.0342766 -0.0224616
1734 1 0.67541 0.0749554 0.0502124 0.0217088 -3.35662 -0.0426104 0.03908 0.00174522
140 1 0.700264 0.0748694 0.0249044 0.0149979 -3.35664 0.0152467 0.0354332 0.0601661
1817 1 0.69991 0.100249 0.0502408 0.0344089 -3.35928 0.109218 -0.0510502 -0.0520648
134 1 0.675103 0.0751665 0.000160826 0.0189061 -3.3566 1.27486e-05 -0.0251573 -0.0373429
217 1 0.700111 0.100062 0.000191704 0.00685047 -3.35199 0.00469473 -0.0225762 -0.014843
219 1 0.724953 0.100295 0.0250543 0.0209923 -3.35511 0.0102015 -0.0613742 0.0349222
1738 1 0.725297 0.0749958 0.0499071 0.0173934 -3.36859 -0.0712037 -0.0475791 0.0307637
144 1 0.750148 0.0749872 0.0248019 0.0108607 -3.34906 0.00526645 0.0725615 0.085155
223 1 0.775102 0.100281 0.0251684 0.027202 -3.35291 -0.0295586 -0.122353 -0.0684194
1742 1 0.775156 0.0747485 0.0497873 0.015572 -3.35487 -0.0418976 0.0694005 0.0667523
1821 1 0.749993 0.100039 0.049861 0.0134016 -3.35324 0.0592608 -0.0660994 0.0284792
138 1 0.725309 0.0750589 0.000186922 0.018785 -3.35007 -0.0649091 0.032527 -0.0751185
221 1 0.750071 0.100135 -5.71999e-05 0.00842856 -3.35438 0.0133169 0.00630819 0.0403144
148 1 0.800001 0.0749814 0.0249152 0.00841547 -3.34919 -0.0332389 -0.0017871 -0.0711561
227 1 0.824609 0.100007 0.0249728 0.0275384 -3.3613 0.0387098 0.0959467 -0.0342799
1746 1 0.824876 0.0749499 0.0496911 0.0172425 -3.34761 0.102232 0.0270191 0.0724301
1825 1 0.800138 0.0995941 0.0499526 0.0424998 -3.34677 -0.0172117 0.147797 0.0253778
152 1 0.849719 0.0752229 0.0243527 0.0469232 -3.34446 0.0720276 -0.0199299 0.128128
231 1 0.875066 0.100147 0.0246245 0.0189464 -3.35817 -0.00709813 0.0102315 0.0666575
1750 1 0.874981 0.0752075 0.0493406 0.0402012 -3.35739 -0.0367086 0.0363454 0.0953979
1829 1 0.849703 0.100146 0.0496691 0.0235768 -3.36305 0.0517984 -0.00780812 0.0264624
150 1 0.875078 0.0748329 -0.000349642 0.0246538 -3.35894 0.0101545 0.0450457 0.00836669
156 1 0.899912 0.0750492 0.0248933 0.00933485 -3.34765 0.0117764 -0.0539542 -0.0540584
235 1 0.92481 0.0996148 0.0251693 0.0485833 -3.35164 0.0786517 0.0912216 -0.14273
1754 1 0.924735 0.074812 0.0499586 0.0177301 -3.35364 0.0516708 0.01329 0.069607
1833 1 0.900243 0.100168 0.0497786 0.030854 -3.35687 -0.0999437 -0.0479478 0.0766617
233 1 0.89993 0.0998455 -0.000106297 0.0165687 -3.35754 -0.0607471 0.0732829 -0.00384952
84 1 1.00029 0.0747847 0.0247738 0.0249999 -3.3455 -0.0408979 0.0369008 0.072326
160 1 0.950042 0.0749609 0.025093 0.00633203 -3.35267 -0.04969 -0.0365721 -0.00380765
239 1 0.975041 0.09962 0.0250216 0.0228069 -3.35098 -0.0108432 0.0882032 0.00257131
1758 1 0.975107 0.0748246 0.0500001 0.00796852 -3.35785 0.00549335 0.0502045 0.0476903
1837 1 0.949847 0.0999204 0.0498166 0.0185015 -3.35126 0.0595571 -0.0721674 0.0595091
162 1 0.0251779 0.125358 -0.000133994 0.049026 -3.34803 -0.0893854 -0.155016 0.033075
168 1 0.0498023 0.12508 0.0248319 0.0247112 -3.3592 0.100839 -0.0407263 0.0482033
243 1 0.0251342 0.150112 0.0251358 0.0148875 -3.34721 -0.0181284 -0.0209328 -0.0549
1762 1 0.0251028 0.125152 0.0500335 0.00979361 -3.35307 0.0294904 -0.0380082 -0.0266721
1845 1 0.0501488 0.149963 0.0500993 0.0168578 -3.35571 0.0527947 0.0331418 -0.0337171
164 1 0.000236056 0.124972 0.024778 0.017747 -3.36047 -0.0229421 0.0177955 0.0479883
172 1 0.100002 0.124764 0.0249257 0.0145094 -3.35637 0.00489582 0.0917943 0.00769009
247 1 0.0750694 0.1501 0.0250323 0.0134943 -3.36325 -0.0211643 -0.0105436 -0.092224
1766 1 0.0752366 0.125167 0.049831 0.014366 -3.3558 -0.0525673 -0.0299916 0.0496505
1849 1 0.099732 0.150242 0.0497414 0.0330518 -3.3479 0.0495132 -0.0580901 0.0679135
166 1 0.0750726 0.124586 -0.000301408 0.0461822 -3.35569 -0.0251063 0.144913 0.116525
170 1 0.124844 0.124883 8.62614e-05 0.00857973 -3.3541 0.0514313 0.0130848 -0.0289012
176 1 0.149594 0.124963 0.0251516 0.0278346 -3.36582 0.094156 0.0569532 -0.0299894
251 1 0.124751 0.150016 0.0249015 0.0109482 -3.35598 0.0135692 0.00565082 -0.00463909
1770 1 0.124945 0.125205 0.0502638 0.0277728 -3.35572 0.0148473 -0.0320464 -0.0469413
1853 1 0.149922 0.150057 0.0501268 0.00916745 -3.34841 0.0135325 -0.0548931 -0.0145573
253 1 0.149742 0.150139 -0.000342166 0.0351358 -3.35633 -0.00346922 -0.0298503 0.116439
180 1 0.200024 0.125394 0.0246646 0.0453633 -3.35813 -0.0764944 -0.0631858 0.119923
255 1 0.174308 0.15046 0.0251263 0.0841485 -3.36081 0.137952 -0.156467 -0.0350947
1774 1 0.175158 0.125073 0.0501318 0.0146007 -3.36064 0.01605 0.0294874 -0.107905
1857 1 0.200105 0.150223 0.0500114 0.0174562 -3.35488 -0.0621113 -0.0522219 -0.04564
184 1 0.250628 0.125284 0.0251041 0.0563305 -3.36079 -0.0874092 -0.0157425 0.0140472
259 1 0.225001 0.14996 0.0252253 0.0247572 -3.35407 0.0432723 0.0677253 -0.0885543
1778 1 0.225036 0.125246 0.0496469 0.0251951 -3.35357 0.0243158 -0.0483236 0.0701151
1861 1 0.249876 0.150288 0.050078 0.0323603 -3.35617 0.0462561 -0.00194737 0.00624172
263 1 0.275268 0.150131 0.0250654 0.0125097 -3.35057 -0.0538954 -0.014973 -0.036443
1782 1 0.275398 0.125643 0.0503908 0.0715862 -3.34799 -0.0665716 -0.092377 -0.0830623
182 1 0.275045 0.12521 4.86644e-05 0.0135261 -3.36384 -0.00394593 -0.0203241 -0.00709505
178 1 0.225089 0.124835 0.000146022 0.0184876 -3.34813 0.0153219 0.061369 0.00815928
261 1 0.249779 0.150128 4.82331e-05 0.0236325 -3.35585 0.064271 -0.0579426 0.0591684
188 1 0.300103 0.124968 0.0250636 0.00776072 -3.36202 -0.0187339 -0.0230144 -0.0229078
1865 1 0.300312 0.150269 0.0497219 0.0453038 -3.35265 0.0603116 -0.0392952 0.114665
267 1 0.325307 0.149623 0.024513 0.0672092 -3.35899 0.0144392 0.087831 0.110631
1786 1 0.325116 0.124993 0.0500105 0.0120896 -3.35056 -0.0018972 -0.0132541 -0.0109681
265 1 0.300299 0.149852 -0.000237606 0.0335284 -3.35391 -0.0828295 0.0223408 0.0561703
192 1 0.350344 0.124509 0.0250681 0.0373356 -3.34516 -0.0565732 0.0918301 -0.0122274
1869 1 0.349759 0.1499 0.0500387 0.0288465 -3.35288 0.0492706 0.0273741 -0.0326426
271 1 0.374949 0.150049 0.025122 0.0174672 -3.35963 0.0347397 -0.00526903 0.0245863
1790 1 0.374936 0.124836 0.0497632 0.0225018 -3.35752 0.141924 0.0461896 0.0395314
190 1 0.374897 0.124986 -2.37707e-05 0.014806 -3.35029 0.0663154 -0.0255636 0.0334242
269 1 0.350287 0.150006 0.000142342 0.0167177 -3.35254 -0.0376783 0.0224145 -0.026533
196 1 0.40033 0.124897 0.0246912 0.0304876 -3.35454 -0.0683084 0.0297458 0.117023
1873 1 0.40032 0.150076 0.0500392 0.0149146 -3.35096 -0.104326 -0.083957 -0.0082569
275 1 0.425063 0.15012 0.0252317 0.0104696 -3.34608 -0.0243116 -0.0191502 -0.0706082
1794 1 0.425072 0.125249 0.0501785 0.0354432 -3.35228 -0.0125081 -0.0804988 -0.0343397
200 1 0.449652 0.124939 0.024873 0.0294325 -3.35409 0.117423 -0.0208371 -0.0183409
1877 1 0.450194 0.150018 0.0496663 0.030316 -3.35282 0.0195338 0.00418578 0.0873197
279 1 0.474848 0.149745 0.0246552 0.0332788 -3.3582 0.0419413 0.00367892 0.091906
1798 1 0.474671 0.124731 0.0501014 0.0336664 -3.35828 0.0897569 0.0611479 -0.0485316
198 1 0.47553 0.124796 -0.00022197 0.0577861 -3.36227 -0.0955503 -0.0437901 0.100069
204 1 0.500184 0.124896 0.0253826 0.047853 -3.35502 -0.0778624 0.0194695 -0.118314
283 1 0.524965 0.150073 0.0250986 0.00848951 -3.36004 -0.0454815 0.0363079 0.0010491
1802 1 0.524906 0.124955 0.0498859 0.0121187 -3.3515 0.0409848 0.0392304 0.0759511
1881 1 0.499653 0.150083 0.0500114 0.0157542 -3.35744 0.028622 -0.0467101 -0.045133
208 1 0.549786 0.125141 0.0250723 0.0132129 -3.35215 -0.0109645 -0.0393499 -0.0386122
1885 1 0.549959 0.150108 0.0500268 0.0079048 -3.35293 -0.0743018 -0.0216592 -0.0352869
202 1 0.524831 0.125112 -0.000125209 0.0215585 -3.35503 0.0338245 -0.061636 0.0534829
281 1 0.499942 0.149855 -0.000207511 0.00813773 -3.35187 0.047666 0.0372824 0.0414808
287 1 0.574941 0.149966 0.0248687 0.0143702 -3.35351 0.0172804 0.0377351 0.0549712
1806 1 0.574941 0.125141 0.0496106 0.0265502 -3.35428 0.0251871 -0.0222119 0.0467013
212 1 0.600331 0.125186 0.0252404 0.044928 -3.35708 -0.0590196 -0.0745888 -0.0310933
1889 1 0.60033 0.15011 0.0499777 0.0225785 -3.3539 -0.0369778 -0.0327929 -0.0273308
291 1 0.625486 0.149583 0.0251815 0.0514424 -3.35312 -0.0959607 0.164448 -0.016955
1810 1 0.625249 0.124841 0.0502469 0.0172803 -3.35316 -0.0703393 -0.00143452 -0.0245257
216 1 0.649971 0.124842 0.0250988 0.0122789 -3.34957 0.0256786 -0.0628087 -0.0222994
293 1 0.649981 0.150017 0.000220639 0.0147555 -3.35231 -0.0116673 -0.0467412 -0.0637318
1893 1 0.650041 0.150027 0.0501951 0.0116938 -3.35263 -0.00914775 0.0221133 0.0119091
210 1 0.624832 0.124964 0.000132471 0.0150342 -3.35209 0.0651842 -0.00506493 -0.0141635
214 1 0.674993 0.124993 9.8855e-05 0.00413904 -3.3577 -0.0118765 -0.0123299 0.0118419
295 1 0.674896 0.149593 0.0249313 0.0472765 -3.3422 0.0327894 0.139296 0.0201956
1814 1 0.675004 0.125406 0.0498643 0.0364131 -3.34735 -0.0164613 -0.117964 0.0547089
220 1 0.69985 0.124922 0.0250995 0.0267107 -3.3593 0.119509 0.0547429 -0.0342924
1897 1 0.700128 0.150289 0.0496367 0.0365361 -3.36463 0.0229416 -0.0191954 0.112254
299 1 0.725316 0.150087 0.0250142 0.0188861 -3.35272 -0.0614047 -0.000461496 0.0152325
1818 1 0.725451 0.125463 0.0501205 0.0494867 -3.35473 -0.1438 -0.0718566 -0.0166449
224 1 0.749953 0.12512 0.0253117 0.0272215 -3.34953 0.0559052 0.0198012 -0.0704026
303 1 0.774865 0.150399 0.0248036 0.0471831 -3.36213 -0.0217962 -0.0464927 0.0648161
1822 1 0.775144 0.124627 0.0499066 0.0343799 -3.3532 -0.0310577 0.111761 0.0735847
1901 1 0.750254 0.150369 0.0501241 0.0199345 -3.35367 0.0113826 -0.0453777 -0.0227912
218 1 0.725482 0.124981 1.84996e-05 0.0415657 -3.35388 -0.144251 0.070484 0.0292125
301 1 0.749769 0.150193 -1.7776e-05 0.0234067 -3.34593 0.10775 0.00820274 0.0209161
228 1 0.799666 0.125005 0.0251416 0.0254909 -3.34921 0.122584 -0.0180167 -0.0206857
307 1 0.824773 0.149727 0.0252435 0.023641 -3.35093 0.0498641 0.0325974 -0.0937502
1826 1 0.824904 0.12552 0.050424 0.0762933 -3.35349 -0.0288043 -0.156081 -0.0844386
1905 1 0.799857 0.149844 0.0499883 0.0223089 -3.35073 -0.000103968 0.0203305 0.0582703
232 1 0.849728 0.12489 0.0251217 0.0227563 -3.35728 0.0272903 0.0213727 -0.00860194
311 1 0.875259 0.149771 0.0250919 0.0271545 -3.36061 -0.0541158 0.0467327 0.0408352
1830 1 0.875176 0.124859 0.0501529 0.0208078 -3.36448 -0.00945604 0.0124896 -0.0958403
1909 1 0.849928 0.149949 0.0498676 0.0205433 -3.35618 0.100329 0.0109951 0.0426877
309 1 0.849785 0.149891 4.63887e-05 0.00910522 -3.35481 -0.0405151 0.0184434 0.00821334
236 1 0.900294 0.125056 0.0247618 0.0232219 -3.35243 -0.0523033 -0.045276 0.0658141
313 1 0.900124 0.149816 1.83414e-05 0.0211675 -3.34624 -0.0246702 0.0399305 -0.0279513
315 1 0.924752 0.150097 0.0248998 0.0299002 -3.35354 0.106549 -0.0234891 0.0247952
1834 1 0.92543 0.124701 0.0498239 0.0348422 -3.34886 -0.0810339 0.100873 0.00860018
1913 1 0.900306 0.150142 0.0500318 0.0163016 -3.35995 -0.0358941 -0.033229 -0.00678285
1841 1 1.00005 0.150416 0.0497939 0.0325091 -3.35422 -0.0636746 -0.119777 0.00328917
240 1 0.949766 0.124994 0.0246205 0.0256239 -3.35899 -0.00199559 -0.045042 0.0172365
319 1 0.975097 0.149922 0.0246255 0.0134403 -3.35471 0.00432747 0.0191283 0.0753838
1838 1 0.97489 0.124674 0.0495413 0.0325316 -3.35999 0.0505237 0.0916572 0.0630149
1917 1 0.950226 0.1499 0.0495564 0.0184441 -3.35271 -0.0502927 0.00439828 0.0384631
317 1 0.950083 0.149886 -0.000154282 0.0178455 -3.35152 -0.061813 0.0504547 0.0128516
248 1 0.0498862 0.17529 0.0245865 0.0521585 -3.35156 0.0920078 -0.111265 0.0970197
323 1 0.0254024 0.200215 0.0249326 0.0279181 -3.34131 -0.10363 -0.0702943 0.0819022
325 1 0.0498188 0.20018 -0.000272558 0.0241514 -3.35591 0.0394034 -0.00877376 -0.0338776
1842 1 0.0252692 0.174722 0.0499117 0.0350304 -3.35413 -0.0581346 0.140774 0.00204869
1925 1 0.0500586 0.19979 0.0501079 0.0201561 -3.34801 -0.0302031 0.0564937 -0.0149625
252 1 0.0997153 0.175549 0.0248244 0.0385332 -3.35714 0.0310812 -0.0922223 0.00837528
327 1 0.0745515 0.20003 0.0250513 0.035359 -3.3487 0.102301 0.00358707 -0.0729508
1846 1 0.0750594 0.175076 0.0500297 0.00711977 -3.3545 -0.0235238 0.00507448 -0.037795
1929 1 0.0999704 0.200455 0.0497314 0.033803 -3.35728 -0.0279802 -0.117827 0.03436
329 1 0.0999456 0.200463 -0.000254211 0.018332 -3.35108 -0.0616167 -0.027629 0.0184669
256 1 0.149614 0.175013 0.024911 0.0123998 -3.34987 -0.00709307 0.0528265 -0.0246247
331 1 0.124785 0.200186 0.0247294 0.0072183 -3.35907 0.060073 0.0195507 0.0272127
1850 1 0.124884 0.174661 0.049837 0.0400751 -3.34897 -0.0447611 0.134244 -0.00747922
1933 1 0.149848 0.199758 0.0496732 0.0255081 -3.36371 -0.00613495 0.111465 0.0192426
333 1 0.149893 0.2001 -0.000425698 0.0249741 -3.355 -0.00865557 0.0261911 0.115432
260 1 0.200042 0.174913 0.0248712 0.0190549 -3.36189 -0.0118073 0.0351661 -0.00207741
335 1 0.174923 0.200099 0.0248168 0.0114971 -3.36285 -0.00685397 0.00966088 0.0275141
1854 1 0.174833 0.174966 0.0499912 0.00835163 -3.34598 0.0312764 0.00453723 -0.0454395
1937 1 0.199786 0.19987 0.0500742 0.0155946 -3.34967 0.0698838 0.0477562 -0.0683113
337 1 0.200014 0.200114 -0.000190894 0.0205705 -3.35021 -0.00845661 -0.0133237 0.0857486
264 1 0.249984 0.175116 0.0251975 0.00957276 -3.35847 0.00814825 0.00270608 0.00745346
339 1 0.224926 0.199895 0.024918 0.0182407 -3.36293 0.024759 0.0438353 0.0532252