ITEM: TIMESTEP
250
ITEM: NUMBER OF ATOMS
32000
ITEM: BOX BOUNDS pp pp pp
9.7541213959717446e-02 8.0902458786035126e+01
-3.9973060423598383e-02 8.1039973060418433e+01
-3.9937673866653256e-02 8.1039937673861431e+01
ITEM: ATOMS id type xs ys zs c_csym c_peratom fx fy fz
4 1 0.000154112 0.0249138 0.0249013 0.0171243 -3.35263 -0.0617459 -0.0135759 0.0183132
8 1 0.0502275 0.0248426 0.0253271 0.0378328 -3.35122 -0.11662 0.0433828 -0.0686289
83 1 0.0253197 0.0500309 0.0246821 0.0358421 -3.35837 -0.059216 0.0226196 0.118602
85 1 0.0499179 0.0499734 -7.43944e-05 0.00940407 -3.35506 0.061711 -0.0227974 0.00814355
1602 1 0.024623 0.0255671 0.0499671 0.0499809 -3.35965 0.0988339 -0.0824653 0.0383657
1605 1 0.0498543 0.000317852 0.0500777 0.0124754 -3.36345 -0.0150742 -0.0331679 0.0420474
1681 1 -0.000161272 0.0500221 0.0498431 0.0178942 -3.36376 0.0780246 0.115342 0.0326988
1685 1 0.0498559 0.0502311 0.0501451 0.0243027 -3.35649 0.0092754 -0.00483529 -0.0487823
12 1 0.100292 0.0248941 0.0250076 0.0173129 -3.3617 -0.0639649 -0.0263045 0.0175821
87 1 0.0750449 0.0497419 0.0249279 0.0193763 -3.36327 0.0437634 0.102171 0.0519024
1606 1 0.0749597 0.0249822 0.0498316 0.0180901 -3.35895 0.0874049 0.0614839 0.0569397
1689 1 0.10051 0.0500732 0.0499128 0.0390729 -3.36436 -0.137912 -0.0170509 0.0215793
13 1 0.150291 0.00016441 0.000118151 0.0316752 -3.36036 -0.0900557 -0.109012 -0.062387
16 1 0.150044 0.0248662 0.0250809 0.0174709 -3.35154 -0.0251037 0.0858019 0.00603642
91 1 0.124961 0.0498487 0.0251209 0.0163569 -3.35867 0.0684416 0.0168868 -0.0233572
1610 1 0.124925 0.0246929 0.0504098 0.0680196 -3.35649 0.0481557 0.0831208 -0.08163
1613 1 0.150144 0.000114737 0.0494321 0.0427681 -3.36306 0.0576157 -0.0815811 0.101377
1693 1 0.150262 0.0498197 0.0499839 0.0171414 -3.3584 -0.0266008 0.0278139 -0.0271472
14 1 0.17496 0.024686 0.000338277 0.0487556 -3.35182 0.0494362 0.121974 -0.16438
15 1 0.175314 0.000282355 0.0250679 0.039063 -3.35002 -0.0427182 -0.156039 0.0781046
20 1 0.200441 0.0246848 0.0251282 0.0398915 -3.35726 -0.0129521 0.0817997 -0.0243154
95 1 0.175315 0.0496877 0.0246876 0.0385364 -3.35725 -0.041354 0.0489719 0.0341511
1614 1 0.175334 0.0254534 0.0498852 0.0488799 -3.35341 -0.0118139 -0.121003 0.017989
1617 1 0.200464 1.08113e-05 0.0503144 0.0301778 -3.35774 -0.0872876 -0.0427951 -0.0967545
1697 1 0.200037 0.0501298 0.0499444 0.0183301 -3.35415 -0.0169119 -0.0385823 -0.000689088
19 1 0.225467 -0.000175569 0.0252989 0.0316678 -3.36582 -0.0910781 -0.00977786 -0.0203446
24 1 0.250348 0.0246673 0.0250189 0.0363403 -3.36289 -0.0307026 0.112822 -0.0096606
99 1 0.225404 0.0498797 0.0246819 0.0354303 -3.35988 -0.0534215 0.0146754 0.0565024
1618 1 0.22496 0.0254292 0.0500624 0.0709878 -3.34763 0.0408814 -0.113989 -0.0578349
1621 1 0.250044 0.000233103 0.0503759 0.0520569 -3.35724 0.0148451 -0.146574 -0.106523
1701 1 0.25011 0.0497822 0.0499329 0.0142587 -3.36057 -0.0100209 0.0827079 0.00526901
22 1 0.274954 0.0248526 -5.8582e-05 0.0150273 -3.35856 0.0369801 0.00279539 0.0475602
23 1 0.275062 -4.79269e-05 0.0252258 0.0131999 -3.35908 -0.0176179 0.00329564 -0.0269989
28 1 0.299604 0.0254121 0.0248961 0.0587437 -3.36007 0.0795722 -0.0857486 0.033986
103 1 0.275098 0.0504722 0.0251869 0.0408163 -3.35163 -0.056191 -0.110049 -0.0600963
105 1 0.299649 0.050324 8.97299e-05 0.0306811 -3.3619 0.0511264 -0.000246762 -0.0029607
1622 1 0.275157 0.025065 0.050174 0.0200918 -3.35202 0.0101499 -0.0158287 -0.0531258
1705 1 0.299928 0.0502059 0.0501245 0.0122656 -3.35747 0.0357655 -0.0511789 -0.00283541
26 1 0.324923 0.0251449 0.00031566 0.0168401 -3.35459 -0.0125582 -0.0306654 -0.0719523
27 1 0.325135 0.000325709 0.0250085 0.0228284 -3.35861 0.00804929 -0.034018 -0.0164389
29 1 0.350165 7.22095e-05 -0.000109002 0.0117448 -3.36156 -0.0236299 0.0498946 0.0394085
32 1 0.350068 0.0254636 0.0248116 0.0210477 -3.3572 0.0384844 -0.0856858 0.0608612
107 1 0.325188 0.0499914 0.024974 0.0318207 -3.35835 -0.0456846 0.111156 0.0377081
109 1 0.349992 0.0503155 7.20529e-05 0.00710174 -3.35227 0.00421367 -0.0121491 0.0150346
1626 1 0.325031 0.0252325 0.0498188 0.0140072 -3.37028 0.0138803 -0.00589505 0.0697693
1709 1 0.350306 0.0506681 0.0501973 0.0608433 -3.36724 -0.00741611 -0.108677 -0.0449605
33 1 0.400165 -0.000187203 -4.12645e-05 0.0270185 -3.36274 -0.00574696 0.051294 0.1047
36 1 0.399957 0.0252639 0.0250807 0.0109504 -3.36026 0.0163397 -0.00532128 -0.0452771
111 1 0.375005 0.0504313 0.0249028 0.00893307 -3.36285 0.00816236 -0.00756508 0.0646888
1630 1 0.374996 0.0249499 0.0495527 0.0446214 -3.35942 -0.00238548 0.0745968 0.113479
1633 1 0.399945 -0.000285012 0.0497145 0.0405536 -3.35574 0.0379424 0.102581 0.124013
1713 1 0.399961 0.0504183 0.0501035 0.0136536 -3.36285 -0.0485211 -0.0674784 -0.0476003
34 1 0.424947 0.0253674 0.000272841 0.0211249 -3.35474 -0.0356572 -0.0790304 -0.0236902
40 1 0.449789 0.0257673 0.0250927 0.0486532 -3.36268 0.032253 -0.131746 0.0556229
115 1 0.424775 0.0507047 0.0251636 0.0359897 -3.35649 0.00323986 -0.0824178 0.0310895
117 1 0.449919 0.0500297 0.000280581 0.021721 -3.36142 0.110074 0.0776268 -0.0927904
1634 1 0.424803 0.0253081 0.0499581 0.0109482 -3.36463 0.0217835 -0.0193244 0.0503279
1637 1 0.44933 -5.02828e-05 0.0500411 0.0497892 -3.35534 0.116707 0.0922731 0.0165893
1717 1 0.450022 0.0504289 0.0506834 0.0527473 -3.35239 -0.090546 -0.0246886 -0.129549
38 1 0.475444 0.0251545 0.000316093 0.037069 -3.35974 -0.0939586 0.0540812 -0.028485
39 1 0.474662 0.000167145 0.0253243 0.0283532 -3.3648 0.002287 0.0625166 -0.0593099
44 1 0.500089 0.0251129 0.0251536 0.00748902 -3.35418 -0.0215358 -0.0020711 -0.0110528
119 1 0.474919 0.0503981 0.0251282 0.0186055 -3.35881 0.0142216 -0.0344268 -0.0271897
123 1 0.524929 0.0502844 0.0249484 0.0150808 -3.36501 0.0619137 -0.0857528 0.0549808
1638 1 0.474508 0.0254289 0.0502019 0.0373449 -3.36358 0.0555005 -0.1031 -0.03454
1642 1 0.524802 0.0249121 0.0501171 0.0144638 -3.36542 0.0909308 0.0554016 -0.01516
1721 1 0.499773 0.0497809 0.049992 0.0246343 -3.35633 0.0183287 0.072849 0.0152771
46 1 0.575157 0.0251655 -0.000317593 0.0331366 -3.35304 -0.104473 -0.0129526 0.100445
47 1 0.575194 0.000654027 0.0249089 0.0578743 -3.35027 -0.0978979 -0.132121 -0.0179582
48 1 0.550174 0.0251687 0.025325 0.0270586 -3.36725 -0.0873819 0.0142659 -0.106954
125 1 0.550063 0.0501615 0.00012482 0.0112586 -3.3551 -0.0453065 -0.0806978 -0.00651101
127 1 0.574827 0.0504061 0.0251062 0.0294625 -3.3579 0.0603823 -0.0941771 0.0124471
1645 1 0.550079 0.000310971 0.0498221 0.0245571 -3.3599 -0.0208289 -0.0832556 0.0559071
1646 1 0.575106 0.0252663 0.0501437 0.0146575 -3.35578 -0.0104431 -0.0267686 -0.0284972
1725 1 0.550042 0.0503043 0.0501241 0.0139619 -3.35803 -0.0670561 -0.0799954 -0.0320638
50 1 0.625088 0.0246516 -4.1359e-05 0.0370035 -3.36324 -0.00780153 0.127648 0.0132928
52 1 0.599742 0.0250689 0.0246021 0.0363531 -3.35574 0.0884956 0.0434555 0.111496
129 1 0.599963 0.0499291 0.000276229 0.0286283 -3.35363 0.0343626 0.00887089 -0.0945405
131 1 0.625148 0.0499984 0.0247983 0.0204144 -3.36268 -0.0157834 -0.0433577 0.0704993
1649 1 0.599992 0.000111024 0.0499551 0.0104187 -3.35735 8.85641e-05 -0.0275348 0.00238946
1650 1 0.625028 0.0247674 0.0497005 0.0181024 -3.35892 -0.0217323 0.0782138 -0.0078691
1729 1 0.600082 0.0500864 0.050056 0.0150083 -3.36581 -0.0171821 -0.0340087 -0.0759685
56 1 0.650233 0.0252361 0.0251678 0.0307056 -3.35883 -0.0471602 -0.0615511 -0.0435671
135 1 0.67467 0.0503372 0.0250784 0.0460107 -3.35869 0.109837 -0.0393506 0.0178239
1654 1 0.675161 0.0248193 0.0502843 0.0278156 -3.36784 0.0148252 -0.00804082 -0.0403778
1733 1 0.650264 0.0499444 0.0502689 0.0266072 -3.35464 -0.0731166 0.00146289 -0.0453534
58 1 0.725435 0.0253324 4.73636e-05 0.0234344 -3.34906 -0.0655385 -0.0836096 -0.0351283
60 1 0.700136 0.0252047 0.024949 0.0129963 -3.35597 -0.0792671 -0.0302996 0.0349535
137 1 0.700055 0.0499078 0.000186619 0.0194642 -3.355 0.0113717 0.0982521 -0.0505463
139 1 0.724896 0.0499842 0.0250048 0.0130041 -3.3534 0.0391053 0.0960484 0.0325675
1658 1 0.725106 0.025188 0.0497601 0.0222439 -3.35954 0.0180791 -0.0195499 0.120157
1737 1 0.699716 0.0498755 0.0499622 0.0296023 -3.35521 0.0654081 0.0146487 -0.0092117
62 1 0.775216 0.0252158 -0.00014773 0.0239807 -3.35808 -0.0114602 -0.0470121 0.0941497
64 1 0.750253 0.0252784 0.0249047 0.0186864 -3.35705 0.0197252 -0.0720796 0.0863937
143 1 0.774839 0.050299 0.0253557 0.0467768 -3.35906 0.0688057 -0.0618648 -0.0711702
1662 1 0.775418 0.0250721 0.0502337 0.0290487 -3.35698 -0.0880237 0.0155141 -0.0364297
1741 1 0.750066 0.0500065 0.050094 0.0132903 -3.36204 -0.0280289 0.0314973 -0.00606481
66 1 0.824593 0.0250225 0.000338326 0.0349422 -3.35406 0.0822777 -0.0151761 -0.0752611
68 1 0.800132 0.0250622 0.0253642 0.0152613 -3.36555 -0.0435191 -0.0158396 -0.0251225
147 1 0.825212 0.0499435 0.0248052 0.0309023 -3.35479 -0.0598359 -0.0177657 0.100275
1666 1 0.825248 0.0248374 0.0503123 0.0233796 -3.36636 -0.114195 0.0396578 -0.0302918
1745 1 0.80012 0.0501886 0.0499736 0.0124183 -3.36072 0.0328013 -0.0603768 0.0160816
69 1 0.84975 0.000429345 0.000193794 0.0455565 -3.36201 0.0633275 -0.127828 -0.04244
71 1 0.87514 0.000263783 0.0251771 0.0175665 -3.35557 -0.00760082 -0.024684 -0.0630478
72 1 0.849917 0.0250041 0.0247485 0.0451081 -3.35474 0.010018 -0.0176771 0.0839777
149 1 0.849979 0.0500016 2.9353e-05 0.0140165 -3.35807 0.017723 -0.0458221 -0.0549773
151 1 0.874714 0.0496488 0.0254785 0.0606536 -3.35791 0.0394004 0.0804623 -0.109095
1670 1 0.875022 0.0248851 0.0501741 0.0130923 -3.34945 0.0375844 0.0415428 0.00513687
1749 1 0.849857 0.0496834 0.0503288 0.0352915 -3.35009 0.011672 0.0732402 -0.0750346
74 1 0.925118 0.0249696 0.000376091 0.0303715 -3.35931 -0.082758 0.022263 -0.0783305
76 1 0.899901 0.0254046 0.0251646 0.0324179 -3.3645 0.077446 -0.0965559 -0.0359524
155 1 0.925192 0.0502989 0.0249109 0.0460982 -3.35965 -0.0687285 -0.0949644 0.0364397
1674 1 0.925023 0.0250806 0.050447 0.0357239 -3.35253 -0.0479186 -0.014903 -0.0989771
1753 1 0.900203 0.0500932 0.0501294 0.0237615 -3.35068 -0.0457503 -0.0278982 0.0063749
81 1 1.00023 0.04981 4.59544e-05 0.00944888 -3.34851 -0.0659347 0.03363 0.0144537
78 1 0.974961 0.0250954 0.000118118 0.0166751 -3.36321 0.00602607 -0.068907 -0.0168811
80 1 0.949855 0.024551 0.0255854 0.0859061 -3.34788 0.0807693 0.144511 -0.0909649
159 1 0.975155 0.0496459 0.0249414 0.0259573 -3.36774 -0.038285 0.0648025 0.0551951
1678 1 0.97506 0.0250106 0.0503155 0.0290594 -3.35856 -0.0654906 -0.00529958 -0.105546
1757 1 0.949651 0.0502666 0.0500836 0.0355257 -3.35886 0.118634 -0.0477803 0.03289
84 1 0.000205137 0.0750057 0.0248837 0.0121364 -3.37035 -0.0511288 -0.0168142 0.0162751
88 1 0.0502365 0.0748072 0.0247279 0.0348157 -3.35832 -0.0377424 0.042582 0.0161486
163 1 0.0251267 0.100222 0.024867 0.0165238 -3.35137 -0.0639067 -0.0723001 -0.0674137
165 1 0.0500548 0.100315 0.000195263 0.0294876 -3.36187 -0.0219199 -0.0657801 -0.136273
1682 1 0.0251616 0.0754303 0.049827 0.0272935 -3.36417 -0.0879556 -0.131742 0.0600419
1761 1 4.96629e-05 0.100091 0.049786 0.0150805 -3.35295 0.0377939 -0.0209463 0.0572513
1765 1 0.0498207 0.100023 0.0494677 0.0419559 -3.3608 0.118008 0.0737052 0.131577
92 1 0.100083 0.0751577 0.0251512 0.0240034 -3.36447 -0.0214345 -0.0868777 -0.0237592
167 1 0.0749955 0.0999998 0.0245669 0.0263921 -3.36036 0.0400667 0.0109542 0.0848725
1686 1 0.0747801 0.0752493 0.0500842 0.0337817 -3.36279 0.0773056 -0.0255819 -0.0782867
1769 1 0.100089 0.0999338 0.0500305 0.0144996 -3.35944 0.00858294 -0.00445133 -0.0249896
96 1 0.150273 0.0747422 0.0250369 0.0216344 -3.36787 -0.0111507 0.0847752 -0.0716788
171 1 0.125066 0.0999839 0.0244433 0.0434246 -3.35624 0.0806504 -0.0639711 0.137701
173 1 0.150326 0.100181 -7.18732e-05 0.0195424 -3.36365 0.0301388 -0.13175 -0.0110892
1690 1 0.125528 0.0751554 0.0500475 0.0256871 -3.35617 -0.0730163 0.0135588 -0.0580184
1773 1 0.150191 0.100177 0.0498988 0.00999595 -3.36349 0.0176296 -0.00457097 -0.0506756
94 1 0.17553 0.0750402 -2.08621e-05 0.0226554 -3.36223 -0.132094 0.0122058 -0.0421417
100 1 0.199775 0.0745841 0.0249551 0.063611 -3.35543 0.141885 0.0815196 -0.00681818
175 1 0.175504 0.100208 0.0248364 0.0250793 -3.3608 -0.0892644 -0.0329659 -0.0017903
177 1 0.200686 0.0999566 -7.28109e-05 0.036244 -3.36067 -0.108125 0.0553109 -0.00450514
1694 1 0.174907 0.0751241 0.0498391 0.0230095 -3.35719 0.0424701 -0.0352699 0.0371081
1777 1 0.200174 0.0999803 0.0498169 0.0121895 -3.35438 -0.0193959 -0.014307 -0.0019703
104 1 0.25007 0.0749671 0.0248505 0.0159739 -3.36384 -0.034917 0.069454 0.117582
179 1 0.225119 0.0998974 0.0251102 0.0127251 -3.36375 0.0327849 -0.00221537 0.00426708
181 1 0.250271 0.100156 0.000190766 0.0237098 -3.35656 -0.0623911 0.0174144 -0.0155779
1698 1 0.224868 0.0745759 0.0501304 0.0466847 -3.365 0.108698 0.107141 -0.0702585
1781 1 0.250013 0.100486 0.0504149 0.0630853 -3.36309 0.0197152 -0.160429 -0.125282
108 1 0.300149 0.0751396 0.0250946 0.0101922 -3.36403 0.0131909 0.000486015 -0.0183128
183 1 0.27526 0.10003 0.025301 0.0189636 -3.35735 -0.0825543 0.0192193 -0.0361079
1702 1 0.274772 0.0750426 0.0500779 0.0172577 -3.35893 -0.00330218 0.0210841 0.0474493
1785 1 0.299995 0.0998537 0.0503516 0.01173 -3.35696 0.0610021 -0.0314072 0.0127393
106 1 0.32514 0.0752221 -4.73084e-06 0.014742 -3.36186 -0.0887267 0.0110625 0.0738211
112 1 0.350161 0.0756253 0.0250012 0.0328189 -3.35425 -0.0301034 -0.126579 0.0281054
187 1 0.325043 0.100057 0.0251759 0.00862652 -3.35329 0.0136819 -0.0371558 0.00301935
1706 1 0.32503 0.0747003 0.0504063 0.0392619 -3.36299 -0.0159416 0.0832341 -0.0576121
1789 1 0.349714 0.0999512 0.0500342 0.0470424 -3.3532 0.0795168 0.039105 0.0512235
116 1 0.399921 0.0753315 0.0246302 0.0368295 -3.35812 0.0177869 -0.00277006 0.0834152
191 1 0.374913 0.100458 0.0251425 0.0218698 -3.36202 0.027786 0.0282369 -0.0967581
193 1 0.399857 0.100593 -0.000107407 0.0177641 -3.3595 0.00382362 -0.0441952 0.0299001
1710 1 0.37538 0.075857 0.0502327 0.0817031 -3.35688 -0.0910213 -0.166184 -0.0576093
1793 1 0.400132 0.100342 0.0496142 0.0354474 -3.34808 -0.0131843 -0.0195514 0.0801177
120 1 0.449873 0.075022 0.0252994 0.0212725 -3.35605 0.0155447 0.0534248 -0.0359762
195 1 0.424999 0.100055 0.0246764 0.0243289 -3.36315 -0.00277007 0.0564452 0.0312306
1714 1 0.424863 0.0754515 0.0505034 0.0415209 -3.34973 0.0405211 -0.029918 -0.130769
1797 1 0.449879 0.100176 0.050176 0.00811548 -3.36791 0.0354367 0.0256948 0.0254297
122 1 0.524961 0.0750914 -0.000128419 0.00912165 -3.34843 0.0109324 -0.00321023 0.0471708
124 1 0.499966 0.0750823 0.0249635 0.00697827 -3.36099 -0.0156835 0.0536488 0.0458974
199 1 0.474725 0.100085 0.0249859 0.0135827 -3.35802 0.0728092 -0.0142177 0.0014669
201 1 0.500054 0.0999 -0.000247597 0.0323535 -3.36326 -0.030919 0.103731 0.070502
203 1 0.524776 0.100231 0.0248714 0.009823 -3.37025 0.0156202 -0.0577796 -0.00558865
1718 1 0.474901 0.0752795 0.0500817 0.0131889 -3.35837 0.0196454 0.00016801 0.0282294
1722 1 0.524842 0.075022 0.0500027 0.0104053 -3.36321 0.00935633 0.00486511 -0.0541812
1801 1 0.499726 0.100212 0.050127 0.019677 -3.34993 0.0150081 -0.0729293 -0.112759
126 1 0.57498 0.0748694 -6.08932e-05 0.00836907 -3.36115 0.00633961 0.0643224 0.00739938
128 1 0.550083 0.0750801 0.0248507 0.0122172 -3.35862 -0.0753766 0.0608896 0.0554052
205 1 0.549959 0.0998889 -2.12828e-05 0.0163188 -3.36363 -0.000313531 0.0548303 0.068781
207 1 0.57511 0.100046 0.0251656 0.0207172 -3.35303 -0.0848368 -0.0467998 -0.122669
1726 1 0.575018 0.0754946 0.0499331 0.0363063 -3.35351 -0.00994003 -0.120078 0.0179562
1805 1 0.549772 0.0999548 0.050074 0.0152918 -3.35852 0.010097 -0.00561044 -0.0519904
130 1 0.62477 0.074817 -0.000248733 0.028359 -3.36325 0.0857303 0.0355445 0.0417249
132 1 0.600134 0.0748638 0.0250847 0.0144493 -3.35145 -0.0323356 0.0112765 -0.0365712
211 1 0.624905 0.0998674 0.0249908 0.00873795 -3.36136 0.0570364 0.0577964 0.00662603
1730 1 0.625057 0.075117 0.0499864 0.0127726 -3.3574 0.000436283 -0.0244528 0.011601
1809 1 0.599872 0.0999812 0.0495956 0.0286002 -3.35595 0.110972 0.0374734 0.141308
134 1 0.675238 0.0749632 6.25789e-06 0.0219076 -3.35824 -0.082039 0.0289733 0.0530165
136 1 0.649751 0.0751306 0.0253628 0.0370389 -3.36331 0.0858336 0.000854132 -0.0879295
215 1 0.675115 0.100055 0.0251854 0.00674995 -3.35531 -0.038438 -0.0655776 0.0151734
1734 1 0.675196 0.0749903 0.0502333 0.0153291 -3.36007 -0.0493432 0.0530715 -0.0637475
1813 1 0.650388 0.100115 0.0502231 0.0267919 -3.36352 -0.106396 -0.0233478 -0.0261256
140 1 0.700209 0.075224 0.0249746 0.0234372 -3.36119 -0.0535652 -0.0714547 0.0399154
219 1 0.724931 0.100107 0.0249705 0.00397054 -3.35773 -0.00978701 0.0142103 -0.03512
1738 1 0.724715 0.0749493 0.050241 0.0358914 -3.36397 0.104162 0.014759 -0.0639559
1817 1 0.700402 0.100222 0.0501451 0.0373217 -3.35349 -0.111246 -0.0366585 -0.0499148
142 1 0.775449 0.0748324 -4.35138e-05 0.0344893 -3.36161 -0.149932 0.0816656 0.00257907
144 1 0.749749 0.0752437 0.025031 0.0206206 -3.36262 0.00948333 -0.0604911 -0.0486514
221 1 0.749892 0.100154 -5.66509e-05 0.00759297 -3.36403 0.0499585 -0.0714025 -0.0145441
223 1 0.77504 0.0999178 0.0248274 0.0125409 -3.35647 0.0291048 0.0535058 -0.0456831
1742 1 0.774945 0.0754105 0.0497116 0.0308576 -3.35154 0.0399579 -0.0588274 0.0583537
1821 1 0.750099 0.100228 0.0494526 0.0673966 -3.3522 -0.0819588 -0.0590886 0.172484
146 1 0.825189 0.0748939 -0.000270733 0.0180391 -3.34606 0.0014041 0.0102737 0.0552036
148 1 0.800152 0.0749544 0.024728 0.0116434 -3.35405 0.000622477 0.0349704 0.0724724
225 1 0.800309 0.0999901 -0.00013893 0.00966038 -3.36119 -0.0528219 0.0615885 0.00744939
227 1 0.825087 0.0999539 0.0247066 0.0121971 -3.36391 -0.0162642 0.0318328 0.0729992
1746 1 0.824848 0.0747967 0.0498251 0.0191945 -3.36223 0.0068409 0.0628909 0.0531218
1825 1 0.800113 0.100255 0.0498608 0.023981 -3.36515 0.0116354 -0.0788416 0.0330488
150 1 0.874826 0.0745376 -0.000172117 0.0274869 -3.36179 -0.0119895 0.0700547 0.0866823
152 1 0.849792 0.0746873 0.0253454 0.0377478 -3.35829 0.0885011 0.0631313 -0.0705574
229 1 0.849841 0.0997647 -2.76979e-05 0.0103764 -3.35954 0.0142702 0.018082 -0.0112789
231 1 0.874809 0.0998636 0.0248371 0.00913722 -3.35871 0.0155301 -0.0885032 0.0344988
1750 1 0.875173 0.074879 0.0499692 0.0171835 -3.36834 -0.0569693 0.0438536 0.000536247
1829 1 0.849818 0.100028 0.0500012 0.00973964 -3.3572 0.00126184 -0.0382413 -0.00979435
154 1 0.924847 0.0750614 -0.000389491 0.043535 -3.35107 0.0128435 -0.0650136 0.124406
156 1 0.899973 0.074648 0.024783 0.0229951 -3.36505 -0.0361503 0.0768667 0.0547795
233 1 0.899755 0.0997207 0.000129436 0.0203114 -3.3575 -0.0115904 0.0777416 -0.055526
235 1 0.924893 0.0999092 0.024727 0.0107816 -3.3608 0.00395916 -0.0580234 0.0467057
1754 1 0.924874 0.0749157 0.0500366 0.0137 -3.36418 0.0247822 0.0761059 0.00266043
1833 1 0.899951 0.100116 0.0498519 0.0134545 -3.35524 -0.0121058 -0.0617272 -0.0123491
160 1 0.950261 0.0748081 0.0250622 0.0331957 -3.35411 -0.0691444 0.0601636 -0.0399092
239 1 0.97494 0.100003 0.0252603 0.0276287 -3.35426 -0.0391684 -0.0240067 -0.0928257
1758 1 0.974916 0.0751864 0.0497486 0.0226451 -3.35465 0.0461627 -0.070733 0.0350758
1837 1 0.949651 0.099965 0.0498957 0.0349923 -3.35988 0.0779942 0.0547197 -0.0034331
162 1 0.0247799 0.124972 0.000111296 0.0192455 -3.36034 0.0147892 -0.0035862 -0.0918275
168 1 0.0502085 0.125179 0.0244883 0.0314838 -3.34869 0.0306211 -0.00900511 0.110895
243 1 0.0250902 0.149865 0.0249286 0.00692591 -3.35836 -0.0306566 0.0557667 0.00939773
245 1 0.0501966 0.149979 5.07149e-05 0.0130489 -3.3622 -0.0364852 0.0636509 -0.0586849
1762 1 0.0251476 0.124984 0.0495709 0.0213091 -3.36057 -0.00435693 0.0410808 0.122481
1841 1 4.8467e-05 0.149975 0.0500666 0.00918674 -3.35891 0.038569 0.0315972 -0.0553312
1845 1 0.0502645 0.149723 0.049757 0.0258368 -3.35931 -0.0611864 0.0752857 0.0178315
172 1 0.100243 0.12481 0.0249265 0.0135377 -3.35601 -0.0110269 0.0361879 -0.0215584
247 1 0.0753832 0.150188 0.025259 0.0324501 -3.35339 -0.0514977 -0.0246446 -0.0736287
249 1 0.1003 0.149815 0.000401597 0.0607057 -3.36342 -0.0206526 0.0308741 -0.101485
1766 1 0.0753075 0.124938 0.0497042 0.0219823 -3.36356 -0.0825436 -0.0465877 0.0122428
1849 1 0.10023 0.150019 0.0500298 0.00720127 -3.35893 0.0355021 -0.00109365 -0.0283374
170 1 0.125124 0.124602 -0.000380026 0.0434692 -3.36107 0.00794619 0.182035 0.0438709
176 1 0.15019 0.125071 0.0246968 0.00753193 -3.35681 -0.00825869 -0.0092363 -0.00118141
251 1 0.125576 0.150064 0.0248087 0.0419622 -3.36026 -0.0820329 -0.0685181 -0.0384581
1770 1 0.124999 0.124745 0.0496055 0.0337918 -3.3589 0.044873 0.0462429 0.0463862
1853 1 0.149967 0.149963 0.0496923 0.0128842 -3.35475 0.026722 0.0274851 -0.0143581
180 1 0.200365 0.12503 0.0250212 0.0156607 -3.36292 -0.035063 0.0295709 -0.0724262
255 1 0.175071 0.150135 0.0247681 0.00458153 -3.36092 0.00107351 0.0216209 -0.0211398
257 1 0.200174 0.150203 -0.000452443 0.022829 -3.35493 -0.0144783 -0.0247369 0.133581
1774 1 0.175041 0.125323 0.0497758 0.0162527 -3.36255 0.0205788 -0.0743682 0.0258759
1857 1 0.199956 0.150044 0.0498949 0.00488453 -3.35461 -0.0380234 -0.0224462 -0.00357812
184 1 0.249817 0.125309 0.0250304 0.0359895 -3.36833 0.0779115 -0.0461806 -0.00307292
259 1 0.224738 0.150133 0.0250393 0.032251 -3.36158 0.0843669 0.00681007 -0.104508
1778 1 0.2252 0.125173 0.0501371 0.0168512 -3.35038 -0.0125511 0.0154349 -0.0467098
1861 1 0.250201 0.150232 0.0497406 0.0412462 -3.36148 -0.0479788 -0.121006 0.0788713
182 1 0.275091 0.125 0.000291573 0.0204727 -3.36201 0.0201958 0.00289717 -0.0117415
188 1 0.300659 0.124862 0.0252932 0.0496565 -3.35258 -0.143285 0.0889658 0.0133409
263 1 0.275236 0.149938 0.0251294 0.0131751 -3.36285 0.00600977 -0.0363955 -0.0365538
1782 1 0.275533 0.124719 0.0501098 0.0566789 -3.3613 -0.12333 0.111028 -0.0171907
1865 1 0.300178 0.150103 0.0502249 0.00879072 -3.36005 -0.0271897 -0.0501243 -0.0496837
192 1 0.349862 0.125365 0.0251542 0.0137564 -3.36341 0.0668826 -0.0330859 -0.0493869
267 1 0.325171 0.150134 0.0252654 0.0100018 -3.36459 -0.0147344 0.0116952 -0.00279926
269 1 0.349838 0.15042 -9.73829e-05 0.0223659 -3.35363 0.0344244 -0.0288196 0.121159
1786 1 0.325136 0.124783 0.0504692 0.0388448 -3.35607 -0.0400621 0.06882 -0.0667849
1869 1 0.350149 0.150047 0.050087 0.0137454 -3.35706 -0.043048 0.0373329 0.0206447
196 1 0.399919 0.125498 0.0250194 0.0204314 -3.35299 0.0336817 -0.0357712 -0.0769777
271 1 0.375081 0.150318 0.0253364 0.0227149 -3.36818 0.0225873 0.0177496 -0.112204
1790 1 0.375251 0.125031 0.049982 0.0286684 -3.34864 -0.0978017 0.0212696 -0.0143145
1873 1 0.400018 0.150151 0.0501573 0.00899738 -3.35558 -0.0169321 0.0723901 -0.0604361
194 1 0.424751 0.125384 -0.0004768 0.0400294 -3.35456 0.121107 -0.0656824 0.130821
200 1 0.449895 0.124925 0.0248872 0.0122207 -3.36222 -0.0368221 0.0391433 -0.00220023
275 1 0.425143 0.150406 0.024888 0.0219481 -3.3627 -0.0299478 -0.0456035 0.00828968
277 1 0.450091 0.150052 -1.99189e-05 0.0135377 -3.36385 -0.0395871 0.0470187 0.00688123
1794 1 0.424726 0.124968 0.0497684 0.0322798 -3.35801 0.0990767 0.0614503 0.020072
1877 1 0.450088 0.150139 0.0496817 0.0174905 -3.36468 0.00599442 0.0158198 0.0555976
202 1 0.524768 0.125461 -7.88737e-05 0.0295607 -3.35441 0.0453313 -0.0829373 0.0468444
204 1 0.499827 0.125347 0.0249671 0.0140089 -3.35863 0.0558025 -0.0633117 -0.0374699
279 1 0.474878 0.150054 0.0248308 0.0141371 -3.35481 0.0159375 0.0712368 0.0395914
281 1 0.499828 0.150225 -0.000181792 0.0126413 -3.36113 0.0249491 0.0763838 0.0296213
283 1 0.525118 0.150284 0.0248999 0.015055 -3.35795 -0.0488175 -0.0404416 0.0299099
1798 1 0.475311 0.125048 0.0497715 0.0378204 -3.35568 -0.142801 0.0393878 0.0689892
1802 1 0.524774 0.124805 0.0497719 0.0262063 -3.356 0.0355976 0.122452 0.0468036
1881 1 0.500112 0.150299 0.0500132 0.0110755 -3.35991 -0.0166264 -0.0377963 -0.0117183
206 1 0.575066 0.124878 0.000368404 0.0165384 -3.35635 -0.00176656 0.0105204 -0.0510075
208 1 0.549757 0.125058 0.0250842 0.012754 -3.35571 0.00601202 -0.0479612 -0.0495166
285 1 0.550138 0.149988 0.00019662 0.0105668 -3.36412 0.0147778 0.0907129 -0.0202327
287 1 0.575158 0.14957 0.0253126 0.0438112 -3.35983 -0.037923 0.144738 -0.0773305
1806 1 0.574781 0.124715 0.0496267 0.0357553 -3.34937 0.0501944 0.0692542 0.0925913
1885 1 0.54989 0.149909 0.0500803 0.0124323 -3.3623 0.0102649 0.0176349 -0.00440007
212 1 0.600121 0.124841 0.024912 0.0146402 -3.35431 0.0452354 0.0353917 0.0162881
289 1 0.600107 0.149985 -3.53448e-05 0.0137242 -3.36261 -0.0497589 -0.00384178 0.0371814
291 1 0.624939 0.150274 0.0253437 0.0252891 -3.35008 0.0202293 -0.0637146 -0.120749
1810 1 0.625356 0.125068 0.0500375 0.0281968 -3.36524 -0.0892779 -0.107656 0.00104303
1889 1 0.600236 0.150122 0.0496718 0.0352094 -3.3568 -0.0770675 -0.0725749 0.0942134
214 1 0.674843 0.124782 0.000247389 0.0155817 -3.35167 -0.0325564 0.0819986 -0.068359
216 1 0.65011 0.125211 0.0250535 0.00981126 -3.35588 -0.0376096 -0.051749 0.0112576
293 1 0.649788 0.150183 0.000135851 0.00739701 -3.37031 0.049877 0.0195832 -0.0037161
295 1 0.675081 0.150118 0.0252068 0.0160603 -3.36279 -0.0417169 0.0257516 -0.0197206
1814 1 0.675174 0.124984 0.049971 0.010251 -3.35837 0.0167822 0.0672341 0.0221958
1893 1 0.649919 0.149903 0.0500149 0.0103629 -3.3561 0.0821146 0.0650936 0.0454403
220 1 0.699891 0.125049 0.0248359 0.0178981 -3.36404 0.0817529 0.0207837 0.100402
299 1 0.724734 0.150197 0.0249139 0.0359544 -3.35522 0.0435128 -0.121816 0.00470259
1818 1 0.7251 0.124931 0.0503118 0.0294179 -3.35532 -0.0374106 0.0154315 -0.116523
1897 1 0.700451 0.150297 0.0503473 0.0609709 -3.35382 -0.144142 -0.119641 -0.0866459
222 1 0.774917 0.124883 7.27772e-05 0.010961 -3.3576 0.0639001 -0.0323349 -0.021262
224 1 0.749631 0.125132 0.0248469 0.0256718 -3.35061 0.0422963 -0.0392076 0.0119116
303 1 0.774944 0.149554 0.0249756 0.0281396 -3.37131 0.0438496 0.110658 0.0127152
1822 1 0.774846 0.124751 0.050133 0.0224153 -3.35824 0.0899684 0.0727787 -0.0389089
1901 1 0.749726 0.149651 0.0498633 0.0276895 -3.35984 0.0833145 0.0753845 0.0534237
226 1 0.825096 0.125331 -2.88718e-05 0.0263306 -3.36154 -0.0096242 -0.0998136 -0.019528
228 1 0.800085 0.125108 0.0249777 0.00706123 -3.36496 -0.00846708 -0.00021594 0.000517174
307 1 0.825054 0.150313 0.0248152 0.0105325 -3.35803 -0.0348191 -0.0803562 0.0429864
1826 1 0.824941 0.125251 0.0499301 0.0114617 -3.36269 0.0298624 -0.046062 -0.0163787
1905 1 0.800056 0.150255 0.0502638 0.0282803 -3.36029 -0.0672873 -0.098084 -0.0830165
230 1 0.874758 0.124841 2.61182e-05 0.0162877 -3.35856 0.0971465 0.0494019 -0.0423624
232 1 0.850184 0.124887 0.0249643 0.0201585 -3.35766 -0.108865 0.0644922 -0.0159239
309 1 0.849923 0.150041 -0.000232194 0.0140709 -3.35434 0.0421137 -0.0063987 0.0399877
311 1 0.875006 0.150148 0.02479 0.0144502 -3.36732 0.00989844 -0.0431146 0.0406335
1830 1 0.87463 0.12485 0.0498147 0.029403 -3.35901 0.11425 0.0772839 0.0566535
1909 1 0.849837 0.150253 0.049815 0.00758116 -3.35575 0.00736388 -0.0575529 -0.00978856
234 1 0.924776 0.124915 4.27763e-05 0.0114778 -3.3546 0.0304195 -0.0342596 -0.00202806
236 1 0.899766 0.124867 0.0249571 0.0094402 -3.35959 -0.00596654 0.0584096 5.65577e-05
313 1 0.90022 0.149974 5.06137e-05 0.0158612 -3.36484 -0.0661686 0.0426111 0.00294467
315 1 0.924851 0.15008 0.0251985 0.00913106 -3.35278 -0.0418543 -0.0101813 0.0203641
1834 1 0.924674 0.124766 0.0497101 0.0344194 -3.35858 0.0625278 0.0729598 0.0886735
1913 1 0.899867 0.149935 0.0503697 0.0291512 -3.36496 0.000577676 -0.0521535 -0.0934613
164 1 0.999788 0.124951 0.02502 0.0125229 -3.35034 0.0712836 0.0274261 -0.0450892
238 1 0.975051 0.124822 0.000224979 0.0245167 -3.35876 -0.0630831 -0.00183141 -0.0783194
240 1 0.949761 0.125064 0.0248348 0.016794 -3.36496 0.047268 -0.0480592 0.0812386
317 1 0.949568 0.149757 0.000180069 0.0316333 -3.35708 0.0872796 0.0287072 -0.0717723
319 1 0.974844 0.150031 0.0248339 0.0151972 -3.35816 0.0199474 -0.0179957 0.0605409
1838 1 0.97542 0.125194 0.0497472 0.0495492 -3.35968 -0.20143 -0.0135766 0.0497791
1917 1 0.949655 0.150112 0.05016 0.0263781 -3.36151 0.0515716 -0.0858283 -0.0456816
242 1 0.0249048 0.175103 4.49131e-05 0.0137301 -3.35984 0.0431566 -0.0526102 -0.0197396
248 1 0.0499687 0.174936 0.0249754 0.0092664 -3.36051 0.0412746 0.000656743 0.0203329
323 1 0.0252859 0.200064 0.0249702 0.0186044 -3.3497 -0.0917823 -0.0193672 0.00204281
325 1 0.0498773 0.200115 -2.01826e-06 0.012424 -3.3564 0.0291406 -0.0138886 -0.0429574
1842 1 0.024968 0.175028 0.049857 0.00781928 -3.36499 0.0347422 -0.00224393 0.0246952
1921 1 9.66697e-06 0.200328 0.0498368 0.0362603 -3.3599 0.0179893 -0.0984241 0.0434394
1925 1 0.0499398 0.20016 0.0496755 0.0166571 -3.36373 0.0269732 -0.0355983 0.0995609
246 1 0.0749057 0.175102 8.9296e-05 0.0202598 -3.36231 0.0634054 -0.0598118 -0.000950444
252 1 0.10031 0.174725 0.0250614 0.0308293 -3.35517 -0.081306 0.0859983 -0.0148177
327 1 0.0750719 0.200017 0.0246565 0.0181353 -3.35986 0.00257726 -0.0395524 0.0963433
329 1 0.0997683 0.200221 -6.98773e-05 0.0174381 -3.35962 0.0768028 -0.032496 0.0244784
1846 1 0.0751458 0.175024 0.0501918 0.0234291 -3.3657 -0.0368808 0.0534212 -0.0946991
1929 1 0.100174 0.200064 0.049857 0.00988006 -3.35681 -0.0281967 -0.0219458 0.0155107
250 1 0.124843 0.175198 -0.000202709 0.0188477 -3.35334 0.0357097 -0.029012 -0.0077737
256 1 0.149576 0.175392 0.0244777 0.0639733 -3.35577 0.141127 -0.0389462 0.0598794
331 1 0.124656 0.199917 0.0248894 0.0327502 -3.35646 0.0947354 0.105751 -0.0383401
333 1 0.149788 0.200156 -0.000544279 0.0227499 -3.36047 0.00389488 0.0250329 0.0550618
1850 1 0.12519 0.175089 0.0499255 0.0147698 -3.35612 -0.0384831 -0.022561 0.0156088
1933 1 0.150081 0.200302 0.049832 0.0151775 -3.36917 -0.00672573 0.0128835 -0.034998
254 1 0.175165 0.175441 -6.70195e-05 0.0350963 -3.34754 -0.0568406 -0.0848808 -0.0377209
260 1 0.199851 0.175138 0.0247982 0.00821834 -3.36199 0.0668418 0.0242742 -0.0165337
335 1 0.174947 0.200176 0.0246774 0.00599578 -3.3608 -0.0266074 0.0576654 0.0226878