ITEM: TIMESTEP
8000
ITEM: NUMBER OF ATOMS
32000
ITEM: BOX BOUNDS pp pp pp
3.2365793652558801e+00 7.7763420634738964e+01
-1.2394073630932425e+00 8.2239407363087565e+01
-1.2364941538379455e+00 8.2236494153833704e+01
ITEM: ATOMS id type xs ys zs c_csym c_peratom fx fy fz
8 1 0.0495873 0.0252699 0.0252367 0.0520333 -3.32957 0.0642187 -0.162364 -0.086333
2 1 0.0248057 0.0250787 -0.000399191 0.0260868 -3.34418 0.12008 -0.0432911 0.0616349
4 1 -0.000123492 0.0249462 0.0244821 0.0333151 -3.32712 0.0469595 0.0395085 0.0842122
3 1 0.0248065 -3.29162e-05 0.0251388 0.0134803 -3.33989 0.0568002 0.0510654 -0.0824233
1602 1 0.0248029 0.0251878 0.0503808 0.0446505 -3.3316 0.00918791 -0.0337331 -0.102055
5 1 0.0501805 -0.000108574 -2.9509e-05 0.0335887 -3.35337 -0.0901073 0.0145142 0.0129457
12 1 0.0999329 0.0248745 0.0247702 0.026567 -3.34288 0.0207342 -0.0322227 0.0982172
7 1 0.0747076 -0.000288741 0.0249258 0.019386 -3.33529 -0.0640859 0.0941666 -0.0190976
9 1 0.100085 -0.000431363 6.25535e-05 0.0225527 -3.34433 -0.0548636 0.147549 -0.0310903
1689 1 0.0996602 0.0498647 0.0501278 0.0246736 -3.33966 0.106843 -0.00979958 -0.0463117
16 1 0.149917 0.0244637 0.0250002 0.024234 -3.33256 0.0354398 0.114324 0.00761454
1610 1 0.124834 0.0246295 0.0503332 0.0395176 -3.33322 -0.0481871 0.0945305 -0.111995
1613 1 0.149837 8.98485e-05 0.050017 0.0164195 -3.33009 0.0809962 -0.098434 0.0621621
20 1 0.199949 0.0248625 0.0250711 0.00754569 -3.34112 0.030451 -0.0118847 0.00793312
15 1 0.175239 -7.615e-05 0.0249192 0.0241916 -3.33149 -0.108094 -0.00120491 -0.0068511
1617 1 0.199579 -0.000322966 0.0499497 0.0296831 -3.33935 0.0871224 0.0937579 0.0735554
17 1 0.200255 -0.000364895 0.000172763 0.0303303 -3.32423 0.00441269 0.0970514 0.0436966
24 1 0.249726 0.0247581 0.0249432 0.0274586 -3.33418 0.103664 0.109567 0.037557
1622 1 0.274888 0.0248697 0.0500683 0.0152898 -3.33845 0.0892072 0.0933398 -0.0827204
19 1 0.225084 -0.000176096 0.0252458 0.0129542 -3.33609 -0.0581001 0.00450034 0.00044438
23 1 0.274996 0.000119556 0.0246418 0.0511306 -3.33998 0.0730984 -0.065083 0.127657
1618 1 0.22506 0.024698 0.0501593 0.0201745 -3.34148 -0.0758188 0.040502 -0.0307592
28 1 0.2998 0.0248665 0.024864 0.0208199 -3.34116 0.0555129 0.0693286 0.0194765
26 1 0.325155 0.0247233 -9.82967e-05 0.0172369 -3.34811 -0.0288336 0.0777695 0.0248079
32 1 0.350444 0.0250116 0.0249067 0.0268578 -3.34073 -0.120363 -0.0358441 -0.0201682
31 1 0.374957 -9.35829e-05 0.0249647 0.0119362 -3.34133 0.0570906 0.0403005 -0.0045689
30 1 0.375024 0.0252454 -0.000223039 0.0301119 -3.34221 -0.00503674 -0.103213 0.0346731
36 1 0.400114 0.0250692 0.0250961 0.014989 -3.34216 -0.0265737 -0.0268598 -0.055727
115 1 0.425031 0.0499039 0.0246787 0.0188426 -3.33922 -0.00620307 -0.0204296 0.0590119
35 1 0.424877 3.34198e-05 0.0249809 0.0107487 -3.32585 0.0775195 -0.00779603 8.76368e-05
33 1 0.399957 0.000108705 -3.22796e-06 0.00968853 -3.33108 0.0218329 -0.0431961 0.0083791
34 1 0.424918 0.0245698 -0.00022464 0.0377622 -3.33883 0.0504472 0.149451 0.018095
40 1 0.449859 0.0249008 0.0246961 0.0131323 -3.33805 0.048808 0.00701163 0.0604857
119 1 0.47517 0.0500396 0.02466 0.0169789 -3.3442 0.00308078 0.00803945 0.0966873
44 1 0.500117 0.0247197 0.0247629 0.0201618 -3.3404 -0.069429 0.0863889 0.00687384
41 1 0.499844 -0.000402015 -0.000369483 0.0466721 -3.34071 -0.00950451 0.108376 0.0323952
48 1 0.549965 0.024636 0.0250126 0.0308079 -3.34079 -0.0071831 0.120165 -0.0172234
43 1 0.524551 -0.000264893 0.0251407 0.0425454 -3.33397 0.100576 0.0217691 -0.0588392
42 1 0.524898 0.0249998 -0.000163116 0.0147017 -3.34442 -0.0205928 0.0361415 -0.00800926
125 1 0.550054 0.0500266 -0.000187202 0.00912806 -3.34102 -0.00526395 -0.0176782 0.0089332
52 1 0.599499 0.0254348 0.0248484 0.0584811 -3.34265 0.115006 -0.0503379 0.0850191
129 1 0.600293 0.0502473 -0.000296546 0.032726 -3.33436 -0.102361 -0.0736966 0.0821316
127 1 0.574924 0.0502548 0.0248495 0.0125993 -3.33907 -0.0164863 -0.0405654 -0.00228808
46 1 0.575073 0.025053 -0.0001167 0.00773489 -3.33108 0.0091809 0.0542027 0.0323091
56 1 0.649826 0.0251293 0.0252548 0.0147279 -3.33181 0.00848838 -0.0133059 -0.0140648
50 1 0.624677 0.024757 5.10919e-05 0.034226 -3.33737 0.0655934 0.141365 -0.0110514
135 1 0.67476 0.0500383 0.0248599 0.0184063 -3.33571 -0.0105495 -0.0232043 0.0660933
60 1 0.699843 0.0251712 0.0250375 0.00374252 -3.34233 -0.00977272 0.0149616 -0.0514744
1737 1 0.699763 0.0498196 0.0498815 0.0306594 -3.3376 0.00954976 0.0697174 0.0538868
137 1 0.700064 0.0501695 -5.47012e-05 0.021938 -3.34543 -0.0464115 -0.0709678 0.0142086
139 1 0.725313 0.0502503 0.0253488 0.0546486 -3.33031 -0.0971205 -0.0274102 -0.113822
64 1 0.749896 0.0249753 0.0247823 0.0174686 -3.33357 0.0835868 -0.0013051 0.0447677
1662 1 0.774992 0.0249233 0.049925 0.00677641 -3.33328 -0.0303183 -0.0044165 0.00983432
59 1 0.724956 0.00030834 0.0252069 0.015094 -3.33236 -0.022553 -0.0489306 -0.0545507
1741 1 0.750236 0.0497857 0.0498266 0.02894 -3.33427 0.0309953 0.0616002 0.0857097
62 1 0.774982 0.0248498 -0.000128424 0.0249729 -3.34151 0.0539642 0.114513 0.101518
68 1 0.799917 0.0250659 0.0251668 0.0120131 -3.33048 0.00494304 0.00558256 -0.0920501
67 1 0.82502 0.00037355 0.0249743 0.0195098 -3.34143 0.0522589 -0.0436647 0.0103046
1666 1 0.825043 0.0249987 0.049874 0.0166226 -3.34349 0.0285605 0.0681749 0.000565321
1745 1 0.799673 0.0499314 0.0500459 0.0184393 -3.34066 0.0575298 0.0567294 0.00720971
65 1 0.800255 3.26156e-05 -0.000345802 0.0526268 -3.3237 -0.0560099 0.0405274 0.193987
72 1 0.850402 0.0250199 0.024865 0.0387037 -3.33512 -0.113875 0.058791 0.0509603
151 1 0.87471 0.0501494 0.0250743 0.0368446 -3.33115 0.113973 0.0302903 -0.0462895
70 1 0.875108 0.0250521 7.7365e-06 0.0147565 -3.3394 -0.0365217 0.0507574 -0.0674952
1670 1 0.875065 0.0252461 0.0503645 0.0291882 -3.33766 -0.00381639 -0.0723563 -0.0911056
1749 1 0.850212 0.050353 0.0497764 0.0335411 -3.34069 -0.101671 -0.0557816 0.100138
76 1 0.89988 0.0252819 0.0250883 0.0139576 -3.33383 -0.0324193 -0.0588514 -0.0332461
1674 1 0.924748 0.025138 0.0496483 0.0388941 -3.33289 0.028891 -0.0272081 0.162729
74 1 0.925037 0.0252042 -0.000129855 0.00797631 -3.33508 -0.0617913 0.015293 -0.0118088
80 1 0.94979 0.0252776 0.0251295 0.0216619 -3.32858 0.0323236 0.0271442 -0.0822472
1678 1 0.975285 0.0250839 0.0496773 0.0324884 -3.33103 -0.0978565 0.0741728 0.0620851
78 1 0.974679 0.0251083 -0.000281547 0.0136644 -3.34097 0.00813252 0.0233064 0.0224889
159 1 0.974869 0.0500346 0.0249132 0.00862003 -3.34619 -0.0116128 0.0203144 -0.0203266
77 1 0.94967 0.000121887 0.000103857 0.0230425 -3.33717 0.0728015 -0.0311947 -0.0687509
83 1 0.0248579 0.0495884 0.024756 0.0660881 -3.33537 -0.0362098 0.198349 0.0519412
88 1 0.0499657 0.0751019 0.0248227 0.0304237 -3.3482 0.0518304 -0.060763 0.0784959
1682 1 0.0253873 0.0750979 0.0503674 0.0531125 -3.34178 -0.0430531 -0.0306717 -0.153576
1685 1 0.0501264 0.0498332 0.0498251 0.0353588 -3.33409 -0.0541976 0.113593 0.0784911
1681 1 7.81726e-05 0.050183 0.0497482 0.0230506 -3.34315 -0.0437572 0.0447531 0.00942151
82 1 0.0247366 0.0752021 0.000310786 0.0347404 -3.33173 0.110711 -0.096443 -0.0658074
87 1 0.0752173 0.0498682 0.0251637 0.0234381 -3.33156 -0.0427551 0.087727 -0.0540673
92 1 0.100248 0.07479 0.0250269 0.0195886 -3.3407 -0.145545 0.0122466 0.0113809
86 1 0.0753017 0.0753982 -0.000409403 0.076542 -3.32808 -0.0622934 -0.110014 0.222651
1686 1 0.0749303 0.075085 0.0503363 0.0181307 -3.35111 0.0141812 -0.0300878 -0.0630952
1693 1 0.149624 0.0496357 0.0499799 0.022625 -3.33593 0.0550732 0.0639594 0.0245363
91 1 0.125184 0.0496992 0.025039 0.0116247 -3.33493 -0.0720378 -0.0182918 0.0229283
96 1 0.150146 0.0748092 0.0248246 0.0225815 -3.33353 -0.0206916 0.0120983 0.083525
1690 1 0.125126 0.0749441 0.0498639 0.0226066 -3.34865 0.023413 0.0047237 0.0728437
95 1 0.174892 0.0497082 0.0250852 0.0080788 -3.33527 -0.058001 0.0156211 -0.0465144
100 1 0.200048 0.074681 0.0250927 0.0162528 -3.33528 -0.0937827 0.0409631 -0.0388465
175 1 0.174934 0.0997796 0.0252213 0.0161238 -3.3305 0.0700976 -0.0477101 -0.0112834
1697 1 0.199762 0.049536 0.0496388 0.0384636 -3.33652 0.0838447 0.073579 0.12115
1694 1 0.174863 0.0747177 0.0498622 0.0150601 -3.34572 0.0131811 0.0261227 0.0435267
1777 1 0.200229 0.0997328 0.0501122 0.020548 -3.34125 -0.103478 0.0138082 -0.0177623
99 1 0.225139 0.0499727 0.0252389 0.0204156 -3.33454 -0.00678168 -0.0426082 -0.073373
103 1 0.274902 0.0500894 0.0251398 0.0146959 -3.33846 0.00290607 -0.085004 -0.00562935
104 1 0.250398 0.0747661 0.0249815 0.0352444 -3.33576 -0.12061 0.0811364 -0.0692044
1701 1 0.249902 0.0499823 0.0500397 0.010576 -3.32998 0.0512901 -0.0200134 -0.0451618
1698 1 0.225135 0.0750428 0.0497367 0.0158105 -3.34244 -0.0280555 -0.0300014 0.071282
1702 1 0.275017 0.0753256 0.0498678 0.0297011 -3.32753 0.10296 -0.109141 0.0108453
107 1 0.325177 0.0501336 0.0249159 0.0162524 -3.34138 -0.0644007 -0.092775 0.00522583
108 1 0.299997 0.0752257 0.0248156 0.00723862 -3.34233 0.0178225 -0.023693 0.0495139
187 1 0.324906 0.100593 0.0244832 0.0998296 -3.33233 0.00760529 -0.123133 0.112914
106 1 0.324948 0.074909 -0.000139926 0.0170831 -3.33858 0.0107674 0.0226884 0.037172
111 1 0.375059 0.0498971 0.0251495 0.0167378 -3.33495 -0.00898832 0.0570354 -0.0466316
112 1 0.349683 0.0751151 0.0252462 0.0454451 -3.3293 0.0836217 -0.0166732 -0.133281
191 1 0.375448 0.0996998 0.0249539 0.0485143 -3.33613 -0.108098 0.0612019 0.0137826
110 1 0.374917 0.0747894 0.000246638 0.0174482 -3.33704 0.0475372 0.0310249 -0.0548414
116 1 0.400207 0.0747423 0.0249732 0.0188398 -3.33235 0.022905 0.0261326 -0.0579647
1714 1 0.424781 0.0747902 0.0496401 0.0256917 -3.32864 0.0721365 -0.0206657 0.0379536
114 1 0.425175 0.0753493 -0.000323304 0.0411851 -3.32588 -0.0748068 -0.0882282 0.0376204
113 1 0.400092 0.0501898 -0.000117019 0.0230823 -3.33824 0.00154144 -0.0561479 0.0233303
120 1 0.449623 0.0749636 0.0247197 0.0374111 -3.33505 0.137391 -0.0269822 0.0614609
1718 1 0.475029 0.0751812 0.0498753 0.0093288 -3.3368 0.0460963 -0.009729 -0.0984841
118 1 0.475132 0.075107 -5.90676e-05 0.00823272 -3.33409 0.00495288 0.0430436 0.024794
123 1 0.525015 0.0500932 0.0248087 0.00812892 -3.34887 -0.0557247 -0.0328547 0.0267153
124 1 0.500393 0.0753885 0.0250227 0.0374602 -3.34034 -0.132757 -0.0937756 -0.0349429
128 1 0.550085 0.0751071 0.0248887 0.0117021 -3.32631 -0.076633 -0.0126004 0.0162556
122 1 0.52523 0.075358 1.17871e-05 0.0191203 -3.33826 -0.0853767 -0.0358259 -0.0389595
132 1 0.600003 0.0751445 0.0250736 0.011453 -3.34179 -0.0836102 -0.0356697 -0.0137332
207 1 0.57467 0.1001 0.0249369 0.0157733 -3.34319 0.0971234 0.0124807 0.0624669
126 1 0.574948 0.075072 -0.000180597 0.0103596 -3.33429 0.0425715 0.0117836 0.0390536
209 1 0.599862 0.100051 -0.000129396 0.00676525 -3.34429 0.0350755 0.000306953 0.00386021
131 1 0.625306 0.0500432 0.0248697 0.0349172 -3.34278 -0.133963 0.0277676 0.0941415
133 1 0.649899 0.0500997 0.000165204 0.0191667 -3.34232 -0.00878151 -0.0581811 -0.137072
136 1 0.650385 0.0753582 0.0249297 0.0426358 -3.31972 -0.108542 -0.114388 0.012077
1813 1 0.650151 0.0999839 0.0500599 0.0132358 -3.32687 -0.0686663 0.0330501 -0.023157
130 1 0.625014 0.0749771 7.12133e-05 0.0166469 -3.32777 0.0279933 0.0402024 -0.00970514
215 1 0.674966 0.0998798 0.0250682 0.00910213 -3.33242 0.0245299 0.0921018 -0.0470372
140 1 0.699877 0.0747046 0.0253951 0.0429118 -3.33467 0.0397477 0.0882959 -0.0604723
143 1 0.775027 0.0499577 0.0249947 0.00638411 -3.34012 -0.00789543 0.0498383 -0.0478937
1738 1 0.725048 0.0749826 0.050525 0.0423126 -3.33606 -0.0315752 -0.0579833 -0.114063
144 1 0.749998 0.0751106 0.0249958 0.0191693 -3.34235 0.00921552 -0.0356185 -0.0027004
1742 1 0.774862 0.0752962 0.0502038 0.0297359 -3.33151 0.0211509 -0.095172 -0.0923652
138 1 0.724444 0.0751406 5.35419e-05 0.046597 -3.34459 0.0792749 -0.0170849 -0.0400767
219 1 0.725038 0.0999182 0.0251707 0.00946092 -3.33406 0.000851479 0.0009026 -0.0128943
223 1 0.774201 0.100138 0.0254009 0.106044 -3.33848 0.190313 -0.0613672 -0.105594
1821 1 0.749728 0.0999867 0.0504703 0.0423699 -3.3244 0.00355344 0.0619991 -0.0876876
147 1 0.824933 0.0503364 0.0251722 0.0159007 -3.35015 0.0919951 -0.061563 -0.040792
148 1 0.800034 0.0750721 0.0253833 0.0341115 -3.34442 -0.0621998 0.0749195 -0.0687646
227 1 0.825167 0.100099 0.0246776 0.0184199 -3.33381 -0.020616 -0.058891 0.0596954
1746 1 0.825039 0.0752316 0.0502648 0.0235141 -3.34011 -0.0260118 -0.0410542 -0.0736292
152 1 0.850177 0.0753572 0.0249065 0.0126192 -3.3395 -0.074066 -0.046542 0.02036
231 1 0.874983 0.100249 0.0248343 0.0116511 -3.33149 -0.0301355 0.00279392 0.044441
229 1 0.850291 0.0999351 -0.000399777 0.0296473 -3.33463 -0.0668892 0.0139584 0.0504998
150 1 0.875194 0.0750035 7.63011e-05 0.0190831 -3.31973 -0.0231729 0.00721189 -0.0548013
1750 1 0.875358 0.075097 0.0499569 0.0214574 -3.33276 -0.076114 -0.0178025 -0.00499127
155 1 0.924759 0.0503147 0.0248711 0.0112671 -3.3299 0.102594 0.0184045 0.0458611
156 1 0.900035 0.0754125 0.0246897 0.0328024 -3.33477 0.0185814 -0.0871394 0.125253
1754 1 0.925009 0.0754769 0.0502978 0.0484756 -3.32844 -0.0467206 -0.121211 -0.121371
154 1 0.925266 0.075381 -3.05777e-05 0.0342166 -3.33282 -0.0746102 -0.0482524 -0.0517747
1757 1 0.949724 0.0500291 0.0498545 0.018555 -3.34382 0.00270971 -0.00916746 0.027296
84 1 0.999919 0.0750373 0.0249052 0.0203199 -3.33664 0.0909952 -0.0353666 0.123508
160 1 0.949765 0.0755038 0.0251847 0.0441076 -3.33192 0.0435587 -0.106485 -0.0705129
1837 1 0.950072 0.100079 0.0498334 0.0271121 -3.33592 -0.0376919 0.0584339 0.0477678
157 1 0.949508 0.0501973 -0.00026751 0.0349827 -3.34027 0.0993355 -0.00802465 0.0453951
163 1 0.0250031 0.100045 0.0252717 0.00793539 -3.34718 -0.0639092 0.0156072 0.0216329
162 1 0.0249651 0.125171 0.000269251 0.0151307 -3.342 0.053338 -0.0182168 0.00531139
168 1 0.0501074 0.124914 0.0251571 0.0105628 -3.33636 -0.0863074 0.0800052 -0.0204405
167 1 0.074971 0.100144 0.0254996 0.0417743 -3.33687 0.0737056 -0.0940611 -0.125296
172 1 0.100124 0.125056 0.0252376 0.0193621 -3.33512 -0.0214931 -0.00654779 -0.0606762
171 1 0.124885 0.0995821 0.024923 0.0427688 -3.33736 0.112779 0.122043 0.0853717
1773 1 0.150566 0.100318 0.0505642 0.10596 -3.33767 -0.185973 -0.127308 -0.177442
176 1 0.150274 0.124847 0.0253957 0.0288835 -3.32981 -0.139037 -0.0318294 -0.104643
253 1 0.150101 0.14955 2.02647e-05 0.0301374 -3.33754 -0.0337212 0.0726693 -0.019776
170 1 0.124678 0.124722 8.62791e-05 0.0296789 -3.3436 0.111019 0.0517836 0.0177178
1770 1 0.125058 0.125252 0.0497563 0.0493183 -3.33496 0.0032175 -0.0964638 0.097469
1853 1 0.149877 0.150037 0.0500869 0.0223024 -3.33983 0.105208 -0.000122404 0.00351106
180 1 0.199953 0.124631 0.0249903 0.0130351 -3.32958 0.0459514 0.0523776 -0.000570486
1774 1 0.175239 0.124842 0.0499666 0.0126642 -3.32486 0.00527243 0.0446417 0.0463744
1857 1 0.199636 0.150024 0.0499021 0.0260193 -3.33818 0.0695224 -0.0039824 -0.0429764
179 1 0.22479 0.0998228 0.0247756 0.026761 -3.33649 0.122529 -0.0168268 0.0831948
1781 1 0.25045 0.0999928 0.0498328 0.0217939 -3.3396 -0.134594 0.0754324 0.0374046
183 1 0.27481 0.100053 0.0248378 0.0208277 -3.32342 0.0810705 0.0116424 0.0327176
184 1 0.250048 0.124947 0.0253353 0.0263784 -3.33823 0.0269947 0.00279246 -0.0992258
1782 1 0.27539 0.125101 0.050075 0.0199208 -3.33288 -0.0639023 -0.0404834 0.0585144
182 1 0.275091 0.125145 0.000129247 0.0169343 -3.34483 -0.122913 0.0114908 -0.0478828
1778 1 0.224901 0.125075 0.0498202 0.0161531 -3.33605 -0.00352829 -0.0504975 0.0473275
1785 1 0.300242 0.100053 0.0498731 0.0151763 -3.34252 -0.0463736 -0.00781136 0.0287491
188 1 0.299845 0.125072 0.0251392 0.0169842 -3.33732 0.0675761 0.0430225 -0.0418264
186 1 0.325378 0.124984 -0.000184651 0.0458392 -3.33752 -0.115008 0.00760304 0.0550582
185 1 0.299745 0.100259 0.000100768 0.0329213 -3.3299 0.0793492 -0.0556645 -0.0742365
1789 1 0.349865 0.100186 0.0497168 0.0164737 -3.33594 0.0591919 -0.0132308 0.0472978
192 1 0.350199 0.125015 0.0251631 0.0273092 -3.33596 0.0253846 -0.00727424 -0.0859783
1790 1 0.374862 0.125005 0.0498987 0.0209299 -3.3293 0.10859 -0.0529709 0.0396094
190 1 0.375172 0.124763 0.000105827 0.0166969 -3.34521 -0.0557464 0.0679489 -0.0525724
271 1 0.375105 0.15022 0.0245979 0.0425279 -3.33313 -0.0202928 -0.0356 0.0619179
1793 1 0.400327 0.099692 0.0498793 0.0323109 -3.34388 -0.0914767 0.115205 0.0463492
195 1 0.425318 0.100023 0.0248238 0.030341 -3.33315 -0.13245 0.0150494 0.00690368
196 1 0.399653 0.125073 0.0251789 0.050992 -3.32927 0.0686469 -0.0838302 -0.0662844
1873 1 0.399789 0.149915 0.0497782 0.0126487 -3.3274 0.0355939 0.0138822 0.045857
275 1 0.42453 0.149727 0.0248391 0.0475698 -3.33198 0.13398 0.0702801 0.0309247
1794 1 0.424841 0.124994 0.0498058 0.0110966 -3.33627 0.0110236 0.0162302 0.0728834
194 1 0.424744 0.124713 -4.75716e-05 0.0324014 -3.34412 0.108144 0.0812049 0.0154111
199 1 0.474607 0.100267 0.0248982 0.0302268 -3.33798 0.139325 -0.0823999 0.0617806
200 1 0.449896 0.125006 0.0253166 0.0323547 -3.32754 -0.0113397 0.118278 -0.150308
197 1 0.450227 0.0999671 -9.73114e-05 0.0179131 -3.3285 -0.0371012 0.0400558 -0.08031
198 1 0.474699 0.125136 0.000327281 0.0279135 -3.33387 0.0124867 0.0467256 -0.0683433
203 1 0.524864 0.100409 0.025096 0.0133367 -3.31868 0.0516013 -0.0503603 -0.0725955
204 1 0.499942 0.125358 0.0249891 0.00868112 -3.33921 -0.0275455 -0.0433987 0.0307222
208 1 0.549786 0.12514 0.0249799 0.00896265 -3.33228 0.0449427 0.0276393 0.0175071
202 1 0.525158 0.125195 3.84251e-05 0.0153009 -3.33728 -0.0273739 0.0111719 -0.00193528
201 1 0.499932 0.100274 0.00010604 0.0103673 -3.34165 0.0208798 -0.0380847 -0.0273427
212 1 0.600048 0.124871 0.0244794 0.0332422 -3.33852 -0.00438046 -0.00822425 0.0768923
206 1 0.574542 0.125144 -0.000141473 0.0225725 -3.33733 0.0765696 -0.0299272 -0.018804
211 1 0.625081 0.099725 0.0248205 0.024224 -3.33891 0.0131815 0.1315 0.00281829
216 1 0.649971 0.125121 0.025119 0.0144015 -3.34506 -0.00309545 -0.0740008 -0.115381
210 1 0.625114 0.124913 -0.000297806 0.0109498 -3.33686 0.010873 -0.00868949 0.0522107
1810 1 0.624943 0.125103 0.0497186 0.00921872 -3.34142 -0.070275 -0.0188548 0.0419903
213 1 0.650012 0.0998366 -0.000330536 0.019765 -3.33858 0.0483762 0.0912445 0.0972226
220 1 0.699787 0.124823 0.025012 0.0158278 -3.34811 0.05187 0.0640394 0.00215822
217 1 0.699988 0.100141 0.000103633 0.0217262 -3.33315 -0.0406333 -0.0525368 -0.0463691
214 1 0.675276 0.125037 -0.000210155 0.0218387 -3.33761 -0.127192 -0.0107873 0.0664835
1818 1 0.72499 0.125033 0.0501066 0.00793339 -3.33683 -0.0284401 -0.0305595 -0.0402717
224 1 0.749767 0.12494 0.0246916 0.0380926 -3.33058 -0.0217706 0.0545694 0.108593
1901 1 0.749461 0.14999 0.0499265 0.0334226 -3.32981 0.152614 0.00683299 -0.0180814
218 1 0.72509 0.125033 -5.37312e-05 0.0149865 -3.33446 -0.107514 0.0323079 0.00931089
222 1 0.774863 0.124746 1.15944e-05 0.0186018 -3.33538 -0.0378748 0.0648826 -0.0563328
301 1 0.749618 0.15014 -6.36631e-05 0.0215333 -3.3407 0.0463982 -0.0626454 0.0111521
228 1 0.799898 0.124753 0.024819 0.0159994 -3.33634 0.0263402 0.0292966 0.0298574
307 1 0.825094 0.149806 0.0249228 0.00926307 -3.34349 -0.0632404 0.0834306 0.0116068
225 1 0.800121 0.100163 6.75779e-06 0.0179778 -3.33526 -0.097149 -0.0278414 0.0131875
305 1 0.799979 0.149663 -0.000237483 0.0207608 -3.34175 -0.0053341 0.0927171 0.092533
232 1 0.849469 0.125131 0.0248992 0.0452989 -3.31702 0.092696 -0.0922184 -0.0685039
311 1 0.874565 0.149557 0.0252004 0.0686305 -3.34306 0.113888 0.116141 -0.0965426
1909 1 0.849764 0.149846 0.0502492 0.0286308 -3.32927 -0.0373099 0.0663589 -0.0462428
309 1 0.849929 0.149897 -0.000210912 0.0147458 -3.33024 -0.00070292 0.018657 0.0814847
235 1 0.924989 0.100144 0.0248282 0.00771383 -3.32338 -0.0507911 -0.00515608 0.0339151
236 1 0.900212 0.12496 0.0247225 0.0238096 -3.33558 -0.0855554 0.016336 0.0321947
1913 1 0.900199 0.150031 0.0495333 0.0549805 -3.34199 -0.0319433 -0.000720894 0.0957329
233 1 0.899651 0.100008 4.64551e-05 0.0318902 -3.33999 0.104001 0.0865634 -0.123326
234 1 0.925297 0.125149 2.68211e-05 0.0221679 -3.34275 -0.0811123 -0.0513556 -0.0935737
237 1 0.950062 0.100132 -0.000169468 0.0185411 -3.33116 0.0337403 -0.00510437 0.0521124
164 1 1.0001 0.125317 0.025597 0.0517951 -3.33769 -0.00918911 -0.0225448 -0.0881467
239 1 0.975656 0.100229 0.0247279 0.123987 -3.34038 -0.11205 -0.0124031 0.0856675
240 1 0.949801 0.124692 0.0251703 0.0497851 -3.33457 0.109809 0.0970842 0.00593875
238 1 0.974848 0.125131 0.000399019 0.0382604 -3.34336 0.0422726 0.010553 -0.0373164
243 1 0.0248828 0.15036 0.0250412 0.0210956 -3.34557 0.0280128 -0.0331049 0.00978181
248 1 0.0501504 0.175322 0.0252076 0.0413955 -3.33639 -0.0700827 -0.0761979 -0.0925232
244 1 -0.000404301 0.175323 0.0253406 0.0252181 -3.34667 0.0140871 -0.0507179 -0.0917317
245 1 0.0502196 0.150038 -0.000112826 0.0202436 -3.32921 -0.0782023 -0.0120022 0.0763254
247 1 0.0749271 0.149916 0.0249029 0.0140987 -3.3425 0.00889052 0.0607274 0.019618
252 1 0.100189 0.174975 0.0249392 0.0179629 -3.34117 -0.117552 -0.00586613 -0.0119487
327 1 0.074916 0.200032 0.0248307 0.014815 -3.33971 -0.0123117 -0.023882 0.00946781
1849 1 0.0999696 0.150494 0.0498448 0.0617982 -3.32922 0.0240647 -0.158425 0.0248956
251 1 0.125297 0.149997 0.0249914 0.0156504 -3.33675 -0.0681122 -0.02622 -0.0375709
256 1 0.150112 0.174923 0.0249496 0.00934011 -3.33827 -0.0464335 -0.00806929 0.0281327
1933 1 0.150425 0.199878 0.0498098 0.0418454 -3.34061 -0.152712 0.0606674 0.0526765
255 1 0.175132 0.149553 0.0248479 0.0220825 -3.34025 -0.0164423 0.130413 0.0193757
260 1 0.199907 0.174938 0.0247055 0.0196886 -3.33349 0.00258572 -0.076079 0.112128
254 1 0.174866 0.174909 7.87887e-05 0.0133951 -3.3403 0.0166385 -0.0447256 -0.0930416
1854 1 0.175023 0.174966 0.0499357 0.00480943 -3.33061 0.0254451 -0.0478575 -0.0154918
259 1 0.225058 0.149668 0.0249308 0.0133369 -3.34119 -0.0186542 0.0487193 0.0549135
263 1 0.274832 0.150118 0.0255336 0.0543945 -3.34091 0.0326385 -0.0571837 -0.186468
1861 1 0.250038 0.149903 0.0502139 0.0245239 -3.32912 -0.0301513 0.0255943 -0.0598249
264 1 0.249956 0.174895 0.0247932 0.0120634 -3.33156 -0.0135579 0.0143823 0.0544135
261 1 0.249842 0.149979 -0.00023908 0.0277914 -3.34263 0.0560576 -0.0560811 0.0518217
1858 1 0.224946 0.174938 0.0496914 0.0145865 -3.34115 -0.00721204 -0.0213055 -0.0145699
1862 1 0.275126 0.174792 0.0496771 0.0328362 -3.3322 0.00386755 0.068323 0.0604605
267 1 0.32526 0.149979 0.0251625 0.00866484 -3.33309 -0.0470835 -0.0464962 -0.040045
268 1 0.300313 0.174942 0.0250402 0.0181646 -3.33856 -0.0521639 0.0240777 0.000585415
266 1 0.324982 0.174851 0.000152746 0.0123317 -3.33464 0.0141116 0.061398 -0.0513758
265 1 0.300162 0.149892 0.000334634 0.0235929 -3.34399 -0.0502608 -0.0261635 -0.0430796
269 1 0.349926 0.149737 -6.08955e-05 0.0247256 -3.33243 0.00111407 0.0501692 -0.00602689
272 1 0.3499 0.174981 0.0248228 0.0159597 -3.33914 0.044499 0.0483665 0.0716931
351 1 0.375115 0.199874 0.0250918 0.00739678 -3.33767 0.0354382 0.0319455 0.0236877
1869 1 0.350152 0.150144 0.0498426 0.0118437 -3.33396 0.00889971 -0.0126074 0.0477921
273 1 0.40043 0.150113 -0.000198809 0.042556 -3.33012 -0.0989549 -0.0306794 -0.016056
276 1 0.400056 0.175069 0.0249197 0.0104858 -3.33669 0.0107979 0.00351018 0.00550042
355 1 0.425253 0.199862 0.0249094 0.017933 -3.33849 -0.0515872 0.053685 -0.0105354
1874 1 0.424912 0.174703 0.0499175 0.0233801 -3.33293 -0.0193122 0.0732052 0.025064
353 1 0.400063 0.200113 0.000184887 0.0165673 -3.34582 -0.0320322 -0.048968 -0.0580982
274 1 0.425315 0.174942 -0.000159991 0.0263247 -3.33106 -0.0822705 0.0890324 0.0349383
279 1 0.475055 0.15028 0.025132 0.0112054 -3.33299 -0.0407661 -0.0398428 -0.0364762
1877 1 0.449918 0.150265 0.0499437 0.01426 -3.3307 -0.0591806 -0.0407316 0.00912757
280 1 0.44998 0.174868 0.0251644 0.0229108 -3.33932 0.0271988 0.0522478 -0.0769602
278 1 0.474994 0.175127 -0.000248785 0.0111736 -3.34412 -0.0314987 0.0359589 0.0429897
281 1 0.499808 0.150143 0.000182684 0.0108789 -3.33131 -0.0134151 -0.0225573 -0.0257141
284 1 0.499895 0.175009 0.0252059 0.0166912 -3.33338 0.0014793 0.0421615 -0.109416
357 1 0.450077 0.200053 -0.00029137 0.0153424 -3.34329 0.0583825 0.0167838 0.0598609
283 1 0.52487 0.150222 0.0250867 0.0135634 -3.33059 0.0140554 -0.0373929 -0.08694
1885 1 0.549985 0.149728 0.0496504 0.0389782 -3.33003 0.0202523 0.100143 0.0541658
288 1 0.549879 0.174886 0.0247509 0.00908982 -3.34326 -0.0465311 0.0673245 -0.0194476
363 1 0.524557 0.200207 0.0249639 0.0347991 -3.35397 0.119296 -0.0478036 -0.00126682
282 1 0.524808 0.174943 -0.00053618 0.0405302 -3.34112 0.0153268 0.0608097 0.160873
287 1 0.575014 0.149866 0.0246804 0.0217864 -3.33213 -4.08172e-05 0.0358535 0.0174338
1886 1 0.574582 0.175282 0.0496072 0.0382713 -3.33668 0.100933 -0.0825596 0.0727214
292 1 0.599697 0.175153 0.0247193 0.0153017 -3.3362 0.0331505 -0.0590671 -0.0169336
289 1 0.599919 0.14988 -0.000326888 0.0073083 -3.34211 0.0209849 0.0254425 0.0332543
286 1 0.574819 0.1749 -0.000382144 0.00868192 -3.33275 0.0144552 0.0205053 -0.00291629
291 1 0.624725 0.150059 0.0250905 0.023772 -3.33541 0.0660908 0.0145349 -0.147302
296 1 0.650045 0.175123 0.0251019 0.0181309 -3.33347 0.00753628 -0.0647704 -0.0969831
1973 1 0.649979 0.200019 0.0497573 0.00861856 -3.34011 -0.0427357 -0.0251483 0.00479063
293 1 0.649853 0.149765 -4.69443e-07 0.0185696 -3.34712 0.0310421 0.0480854 -0.010584
295 1 0.674812 0.14997 0.0251135 0.0100574 -3.33662 0.0382421 0.0030162 -0.0878918
300 1 0.699643 0.175085 0.0250353 0.0150886 -3.3334 0.049053 -0.0161817 -0.0609001
375 1 0.675107 0.199927 0.0248111 0.0131793 -3.33082 -0.00381077 0.0233699 0.034876
297 1 0.699949 0.150127 -0.000236511 0.00960606 -3.34466 0.0308543 -0.0408705 0.0728094
294 1 0.674852 0.174841 -0.000239532 0.0187257 -3.33961 0.0147817 0.0226912 0.0372658
299 1 0.724863 0.150221 0.025265 0.0332075 -3.33249 -0.0443158 -0.0840784 -0.174469
303 1 0.774938 0.149601 0.0249187 0.0210137 -3.34373 -0.0427947 0.109264 -0.0154144
304 1 0.749862 0.175048 0.0247839 0.00720583 -3.33903 0.0838785 -0.037369 0.00525152
298 1 0.724751 0.175091 -0.000216128 0.0145602 -3.33423 0.0391861 -0.0347804 0.0494954
1902 1 0.774833 0.174788 0.0499362 0.0119145 -3.3442 0.000268061 0.0482931 -0.00705243
1905 1 0.800092 0.149916 0.0500594 0.0122951 -3.34151 0.0270698 0.0118451 -0.0142969
308 1 0.799785 0.174558 0.0252983 0.052642 -3.353 0.0173221 0.110038 -0.123064
1985 1 0.799992 0.200183 0.0496873 0.0259419 -3.34028 -0.0580065 -0.108547 0.0353895
306 1 0.825162 0.174882 0.000295849 0.0292049 -3.34516 -0.0780038 -0.0200334 -0.014721
312 1 0.850328 0.174901 0.0253204 0.0334891 -3.33601 -0.117221 -0.036186 -0.0770961
315 1 0.925075 0.149808 0.0248336 0.0233193 -3.33313 -0.00463753 0.117679 0.014549
316 1 0.899986 0.175334 0.0252147 0.0358465 -3.33928 -0.0430644 -0.165792 -0.078747
314 1 0.925146 0.175001 0.000103828 0.012447 -3.33216 -0.10479 0.0499723 0.0661532
1917 1 0.949762 0.150141 0.0499391 0.0132189 -3.34896 0.0168106 -0.0867033 0.0783194
319 1 0.974651 0.150356 0.0251587 0.020124 -3.34197 0.0761653 -0.108718 -0.00408235
320 1 0.950137 0.17518 0.0250839 0.0176353 -3.32132 -0.0682078 -0.031875 -0.0384063
1918 1 0.974667 0.175227 0.0502569 0.0101188 -3.32982 0.0523449 -0.0268189 0.00224108
399 1 0.974436 0.200358 0.0250035 0.0397996 -3.32755 0.152039 -0.058559 0.0303828
241 1 0.999769 0.149783 0.00017014 0.0345703 -3.33863 -0.0257654 0.125475 0.0382657
317 1 0.9499 0.150282 7.57611e-05 0.0242292 -3.32895 0.10393 -0.0863589 0.010697
325 1 0.0495691 0.199758 -0.000265279 0.0421766 -3.33764 0.0351908 0.129511 0.114457
323 1 0.02471 0.200114 0.0250499 0.00997336 -3.34593 0.0854203 0.039385 0.00129135
328 1 0.0501469 0.225153 0.0248297 0.0289008 -3.34685 -0.113204 -0.0777807 0.0318146
322 1 0.0245818 0.225058 -0.000173333 0.0153089 -3.34357 0.0794755 -0.0602942 0.0479627
1922 1 0.0249351 0.225068 0.0501784 0.0146573 -3.33294 -0.0556094 -0.0632594 -0.0767912
332 1 0.0999171 0.225098 0.025164 0.0111316 -3.32944 0.0181401 0.0117452 -0.118327
407 1 0.0752424 0.24999 0.0251105 0.0204433 -3.33275 -0.0771828 0.0112274 0.0169298
1926 1 0.0751817 0.224806 0.0497458 0.0275997 -3.32979 -0.0689309 0.0352092 0.0638155
409 1 0.0998623 0.250014 0.000117786 0.0132596 -3.34301 0.0953692 -0.0591925 0.063387
331 1 0.124735 0.200203 0.0251234 0.0230152 -3.33429 0.0782844 -0.0843453 -0.0294838
336 1 0.149918 0.224984 0.0252043 0.0161396 -3.34213 0.0304197 0.0692314 0.0421059
1930 1 0.124564 0.224768 0.050037 0.0320061 -3.33853 0.189082 0.0460552 0.0155721
2013 1 0.150172 0.250208 0.0503903 0.0286541 -3.33359 -0.040873 -0.0856465 -0.0757213
330 1 0.125314 0.225138 0.000275114 0.0186168 -3.34289 -0.10935 -0.00306072 0.0136955
335 1 0.175175 0.199783 0.024979 0.0140032 -3.32488 0.0212305 0.105406 0.0703118
1937 1 0.200144 0.199875 0.0500009 0.0116575 -3.33667 -0.0921483 0.0521635 -0.0553011
340 1 0.200368 0.224998 0.0249574 0.0205208 -3.33851 -0.110846 0.0348481 0.0213761
415 1 0.175233 0.249978 0.0253086 0.0234194 -3.33985 -0.0755576 0.000235762 -0.0909003
1934 1 0.175006 0.22526 0.0501112 0.0216135 -3.3425 0.0650187 -0.106988 -0.0231995
339 1 0.224866 0.200041 0.024615 0.0267378 -3.33373 0.0482434 -0.047398 0.0556561
343 1 0.275062 0.200104 0.0251479 0.0242505 -3.33213 0.0435668 -0.10366 -0.0643178
344 1 0.250101 0.224968 0.0250213 0.00853266 -3.3279 -0.0544781 0.0273214 -0.0563353
419 1 0.225386 0.25028 0.0250704 0.0283997 -3.33593 -0.099762 -0.080828 -0.00164228
1942 1 0.274809 0.22506 0.049833 0.0351226 -3.34495 0.0763419 -0.0291311 0.155989
1938 1 0.225114 0.22464 0.0497181 0.0283212 -3.3378 -0.00118977 0.0906947 0.0843358
347 1 0.324992 0.200118 0.0252967 0.0210809 -3.33143 0.0382409 -0.0841784 -0.062999
348 1 0.30016 0.224509 0.0252559 0.0310035 -3.33721 -0.0268646 0.178228 -0.0211789
346 1 0.324854 0.224752 0.000110065 0.0087405 -3.34201 0.0143475 0.0436606 -0.00750884
1945 1 0.30016 0.199904 0.0502308 0.00803403 -3.33561 -0.0528088 -0.0204446 -0.0128473
1946 1 0.325114 0.224667 0.0506115 0.036861 -3.3194 -0.014681 0.0647845 -0.129226