ITEM: TIMESTEP
11750
ITEM: NUMBER OF ATOMS
32000
ITEM: BOX BOUNDS pp pp pp
4.7554687933024100e+00 7.6244531206692429e+01
-2.0011651431901072e+00 8.3001165143184608e+01
-2.0020667570595236e+00 8.3002066757055331e+01
ITEM: ATOMS id type xs ys zs c_csym c_peratom fx fy fz
8 1 0.0501695 0.0247689 0.0250025 0.0137483 -3.31518 -0.0475943 0.0425036 0.0172287
1602 1 0.0250108 0.0249574 0.0501008 0.014217 -3.30471 0.00258919 -0.00733616 0.00207452
83 1 0.0247211 0.0502065 0.0255058 0.0428291 -3.30862 0.0904584 -0.0910195 -0.0754579
1685 1 0.0502007 0.0498238 0.0499338 0.0219557 -3.30748 -0.00341855 0.0722036 0.0598298
12 1 0.100183 0.025127 0.0251188 0.0119581 -3.30925 0.0219943 -0.00463686 -0.0543431
6 1 0.0752369 0.0250111 -1.414e-05 0.00732417 -3.30492 -0.0311237 0.0127315 0.0335158
87 1 0.0749643 0.049841 0.0251463 0.0161118 -3.29989 0.0418206 0.0481266 -0.0365917
1609 1 0.100102 0.000125731 0.0499098 0.00930791 -3.29845 0.0152324 -0.0208544 -0.0248722
16 1 0.15013 0.0248379 0.0246933 0.0271446 -3.31066 0.109732 -0.0118685 0.135511
15 1 0.175394 -0.000176517 0.0248944 0.0149434 -3.30497 -0.0118009 0.0552766 -0.0539368
11 1 0.12495 -2.79585e-05 0.0249347 0.0194805 -3.29785 0.0223115 0.0368877 -0.0123799
91 1 0.125649 0.0499222 0.0254621 0.0455446 -3.30923 -0.0678912 0.0464422 -0.0929296
95 1 0.175266 0.0499417 0.0250155 0.00938702 -3.30928 -0.00779041 -0.0208413 0.0339173
1614 1 0.1755 0.0249282 0.0500368 0.011479 -3.30947 -0.0958644 -0.108057 0.0130317
1693 1 0.150594 0.0497369 0.050224 0.0348341 -3.30664 -0.0295705 0.0203017 0.0483019
1613 1 0.150311 -0.000211119 0.0496044 0.0305248 -3.31529 -0.0099292 0.116274 0.0998078
20 1 0.19993 0.0249202 0.0249602 0.0235846 -3.2908 0.00406356 -0.0639595 -0.04535
19 1 0.225274 0.000210105 0.0251052 0.0369204 -3.31938 0.0133762 -0.0755044 -0.123902
1618 1 0.225044 0.0246476 0.0500429 0.0252899 -3.29339 0.0628784 0.0249317 -0.0178129
1617 1 0.200431 -0.000240497 0.04978 0.0238954 -3.30444 -0.0851511 -0.0276015 0.0979692
24 1 0.25059 0.0251334 0.0254548 0.0663695 -3.30571 -0.0491385 -0.0369805 -0.115185
23 1 0.275011 -3.63638e-05 0.0248144 0.0152534 -3.30552 0.0245952 0.0183193 0.0229299
22 1 0.275006 0.0251495 -1.50291e-05 0.00913178 -3.29867 -0.0510288 -0.0158286 0.0296282
1622 1 0.275572 0.0250286 0.050091 0.0377849 -3.29151 -0.031425 -0.0275051 0.066558
28 1 0.299605 0.0253662 0.0249603 0.046671 -3.30943 0.136947 -0.0484452 -0.0179035
26 1 0.325028 0.0251844 -5.55293e-05 0.00977493 -3.30769 -0.0278398 -0.0531192 0.0115768
32 1 0.349962 0.0246947 0.02457 0.0404858 -3.28889 0.00801779 0.0318793 0.0971418
25 1 0.300033 0.000217826 -0.000150172 0.00658971 -3.30951 0.0456141 -0.0496757 0.0399398
27 1 0.325 9.43676e-05 0.0249848 0.0148102 -3.3078 -0.0753851 -0.00317126 -0.0699065
29 1 0.350334 -0.000133218 -0.000134146 0.0230693 -3.31404 -0.048015 0.00528793 0.0307863
1625 1 0.299914 -0.000195255 0.0497746 0.0322819 -3.30823 0.0679941 0.0422772 0.059502
109 1 0.350165 0.049791 -0.000393581 0.0351421 -3.29276 -0.0634642 0.115799 0.00303604
36 1 0.400411 0.0248031 0.0250306 0.0317148 -3.293 -0.139489 0.108119 0.054069
111 1 0.374726 0.0496136 0.0245962 0.0512309 -3.30885 0.111789 0.0450341 0.0939133
1713 1 0.399956 0.0496073 0.0502182 0.00995821 -3.31327 0.0148266 0.0347631 -0.00503127
31 1 0.375446 0.000121601 0.0249608 0.0382661 -3.30587 -0.0787142 -0.0799416 -0.0061223
1630 1 0.374796 0.0251002 0.0500224 0.0230835 -3.30393 0.0477401 -0.129269 -0.0255865
113 1 0.400356 0.050002 4.70445e-05 0.0185141 -3.30699 -0.0632488 -0.0241388 0.0555515
115 1 0.425209 0.0497903 0.0253301 0.0086209 -3.3045 -0.011159 0.0098218 -0.0329184
40 1 0.450328 0.024757 0.0253698 0.0292723 -3.30353 -0.0639211 0.00499705 -0.0574429
117 1 0.450078 0.0501457 0.000225517 0.0143918 -3.3158 -0.00811733 -0.0483498 -0.0316282
37 1 0.450189 -0.000220492 3.37079e-05 0.0302952 -3.31029 0.00670342 0.104958 -0.0403726
44 1 0.50004 0.0247027 0.0245407 0.0615297 -3.30299 0.000492872 0.0552146 0.122548
121 1 0.500121 0.0501403 0.000205472 0.0214758 -3.31445 0.0294333 0.00821745 -0.0146617
39 1 0.475232 -0.000190083 0.0250462 0.0215422 -3.30349 0.0120198 0.0161097 -0.0262329
1642 1 0.524662 0.0254475 0.0498257 0.0629288 -3.30047 0.0502071 -0.165028 -0.00123949
48 1 0.550423 0.0248898 0.0247989 0.048509 -3.30775 -0.0955366 -0.00813883 0.0539724
1646 1 0.57547 0.0246153 0.0498727 0.052905 -3.30157 -0.0250771 0.0808404 0.0828313
46 1 0.575141 0.0252624 -0.000146131 0.0428962 -3.3068 0.0426512 -0.124375 0.0519165
52 1 0.600045 0.0247114 0.025077 0.00954501 -3.30997 0.0300992 0.0418614 -0.0282895
50 1 0.625041 0.0249398 0.000229263 0.0138979 -3.29904 -0.0268865 -0.0340011 0.0366896
56 1 0.649981 0.0248353 0.0251615 0.0132723 -3.31586 -0.00360253 0.0477923 -0.0213289
60 1 0.699948 0.0249115 0.0245079 0.0464383 -3.31262 0.0705259 -0.011252 0.0717996
135 1 0.674887 0.0499115 0.0249381 0.00887787 -3.30215 -0.0528002 -0.0324323 -0.0109282
137 1 0.700005 0.0500695 0.000144871 0.0187029 -3.30662 0.0394145 -0.0399573 -0.0533434
133 1 0.649267 0.0503438 9.24485e-05 0.0724766 -3.30616 0.130512 -0.0819958 -0.0471401
1654 1 0.675082 0.0250083 0.0501048 0.0136217 -3.30494 0.0341946 -0.0125762 -0.0522409
53 1 0.650764 -0.000149416 0.00031295 0.0629738 -3.30539 -0.0621492 0.0229613 0.000322534
64 1 0.7499 0.0246622 0.0252078 0.0317121 -3.29927 0.0405533 -0.00268494 -0.0549459
1658 1 0.724771 0.0246628 0.0497758 0.0258508 -3.30764 0.0342695 0.0278189 0.0231098
139 1 0.725383 0.0497358 0.0249479 0.0274406 -3.29818 -0.104028 0.0703408 -0.017017
68 1 0.800221 0.0249257 0.0249918 0.00905571 -3.30499 0.00610306 0.044304 0.0164998
143 1 0.775126 0.0499277 0.0249834 0.00421472 -3.31359 0.0219077 -0.00509112 0.00634445
1662 1 0.775124 0.0248907 0.0499374 0.0044831 -3.31441 0.0629362 0.0326256 0.0236801
62 1 0.774768 0.0248228 0.000172644 0.0343508 -3.30484 0.0481546 0.0207452 -0.00914054
72 1 0.850191 0.0249881 0.0250859 0.00567296 -3.30624 0.00701448 -0.00121465 0.0322501
147 1 0.825273 0.0501838 0.0250935 0.0171952 -3.31272 -0.0356852 -0.0168338 0.0126748
149 1 0.850142 0.0499712 6.35065e-06 0.00868975 -3.30316 -0.0123432 0.0472275 -0.040325
66 1 0.825208 0.0251786 0.00012651 0.0142528 -3.30142 0.0032324 -0.0921287 -0.0390454
76 1 0.899696 0.0248296 0.0250491 0.0172998 -3.30839 -0.0292645 0.0793277 0.0499406
1753 1 0.899809 0.0499031 0.0500894 0.0244159 -3.30011 0.0219338 0.0469336 -0.0428119
155 1 0.924933 0.0500016 0.0250446 0.0108204 -3.30808 -0.00522976 -0.0113936 -0.0239001
4 1 0.999965 0.0247805 0.0258479 0.128141 -3.30654 -0.0130009 0.0965575 -0.22464
1681 1 0.999563 0.0502926 0.0500104 0.0417244 -3.29628 -0.00161968 -0.118717 0.0178639
80 1 0.950157 0.0251172 0.0248274 0.0302627 -3.30643 -0.0313236 0.0419524 0.110486
1678 1 0.974808 0.0247093 0.050339 0.0603405 -3.29797 -0.0746699 0.184018 -0.0524314
159 1 0.975303 0.0502667 0.0246437 0.061349 -3.31153 -0.0718148 -0.0448456 0.0575707
78 1 0.975124 0.0253952 0.00029564 0.0489215 -3.30348 0.0756659 0.00957782 -0.00572099
88 1 0.0503184 0.0750955 0.0253732 0.0319993 -3.30567 -0.126709 -0.0527702 0.0409228
84 1 0.000187896 0.0751326 0.0252434 0.0131668 -3.29733 -0.0650602 0.061739 -0.0483428
165 1 0.0500602 0.100359 8.4752e-05 0.0336393 -3.29392 -0.0440249 -3.49011e-05 0.0721202
1682 1 0.0246596 0.0750454 0.0503632 0.0383167 -3.3036 0.114912 -0.0117742 -0.0646963
1761 1 0.0001895 0.100402 0.0501084 0.02069 -3.29862 -0.0641807 -0.0937204 -0.0080574
92 1 0.100202 0.0751209 0.0250667 0.0172453 -3.31075 -0.0297164 -0.0683431 -0.0136928
86 1 0.0747161 0.0753707 0.000425153 0.0481391 -3.30974 0.0937664 -0.128079 -0.0952803
1686 1 0.0753556 0.0749892 0.050027 0.0186651 -3.30199 -0.0622397 0.0182658 0.0289905
167 1 0.0748088 0.0999939 0.0253065 0.0194517 -3.31501 0.0516234 0.114194 0.0225453
96 1 0.150605 0.07522 0.0254187 0.0496854 -3.28943 -0.08679 -0.0828335 -0.0627206
90 1 0.125683 0.0747797 0.000496123 0.0482582 -3.30906 -0.0980765 0.102436 -0.0973881
1694 1 0.175204 0.074807 0.0498772 0.0453325 -3.29821 0.142163 -0.0466066 0.18173
1690 1 0.124931 0.0746458 0.0499581 0.0440386 -3.30053 0.0595613 0.044235 0.0403222
99 1 0.224848 0.0494988 0.0252357 0.0509098 -3.30563 0.118285 0.0654348 -0.0402085
100 1 0.200428 0.0747117 0.0253437 0.022656 -3.30666 -0.0261273 0.0474398 -0.0409981
1698 1 0.225732 0.0745068 0.050257 0.0451247 -3.30161 -0.124473 0.0622779 0.0264338
1697 1 0.200373 0.0494363 0.0504351 0.0363886 -3.29881 -0.0551115 0.16484 -0.0706532
103 1 0.27487 0.0504883 0.0253694 0.0527782 -3.28788 0.0303573 -0.0478372 -0.113342
104 1 0.249653 0.0749634 0.0251319 0.031208 -3.28986 0.0374718 -0.0425632 -0.0222117
1701 1 0.250422 0.0497355 0.050176 0.0252217 -3.30147 -0.102796 -0.0191701 0.0401357
101 1 0.250352 0.0502172 0.00010965 0.021676 -3.31743 -0.0950211 -0.0554898 0.0389341
107 1 0.325506 0.0502465 0.0247038 0.0504169 -3.30687 -0.0875143 -0.0993898 0.0493312
108 1 0.300111 0.0748504 0.0249576 0.0347519 -3.30798 -0.0320298 0.087936 0.0733646
112 1 0.350275 0.0747881 0.0247218 0.0264381 -3.30735 0.0563404 0.103612 0.116992
106 1 0.32502 0.0753087 0.000245329 0.0390053 -3.30598 0.0487108 -0.10735 -0.128487
1705 1 0.300215 0.0501408 0.0499264 0.0153621 -3.30597 0.0677554 0.00394281 0.0190551
105 1 0.299767 0.0501224 8.21748e-05 0.0146228 -3.31749 0.00572289 0.0703649 0.0147219
189 1 0.34994 0.100053 -0.000541166 0.0774772 -3.30531 0.00521176 0.0337563 0.182873
191 1 0.375086 0.100011 0.0249841 0.0186406 -3.30934 -0.0904987 -0.0828163 -0.000607009
116 1 0.39998 0.0746734 0.025213 0.0138986 -3.32318 -0.0819817 0.0385671 0.0202052
110 1 0.374867 0.0751448 -0.000377675 0.0439031 -3.30921 0.13238 -0.018335 0.129647
193 1 0.400406 0.100177 0.000481096 0.0529371 -3.29722 -0.0537596 -0.1208 -0.0644136
120 1 0.450087 0.0749803 0.025344 0.0145735 -3.29868 -0.0533861 -0.0502433 -0.0305309
195 1 0.425201 0.0998333 0.0255231 0.0324162 -3.30827 -0.0929182 0.00557802 -0.00445907
1797 1 0.450128 0.100019 0.0499833 0.0281097 -3.30162 -0.0365982 -0.0313532 0.0464804
123 1 0.525211 0.0499341 0.0253017 0.0443846 -3.30822 0.021776 0.0349093 -0.111373
119 1 0.474883 0.0496421 0.0251025 0.0330926 -3.30893 0.0428211 0.126987 0.0269092
124 1 0.500516 0.0751356 0.0252674 0.0367708 -3.31089 -0.0967433 -0.0369329 -0.0524779
118 1 0.475259 0.0751146 0.000450973 0.0350848 -3.31131 -0.00761199 -0.0136269 -0.0883365
122 1 0.525206 0.0750629 -0.00010646 0.0156974 -3.30965 -0.0380334 -0.00334163 0.0215376
199 1 0.475125 0.0998026 0.0249282 0.0281673 -3.31238 -0.0425477 0.0719921 0.0224474
1718 1 0.474721 0.0749222 0.050127 0.0190746 -3.30983 0.145142 0.00602141 -0.0198587
1722 1 0.525055 0.0752524 0.0497934 0.0198958 -3.30936 0.0983254 -0.0187102 0.0525779
127 1 0.575081 0.0499186 0.0250221 0.0080479 -3.31653 0.0599207 0.0623284 -0.0133828
128 1 0.550421 0.0754767 0.0248086 0.0581164 -3.30669 -0.134205 -0.163411 0.0792707
1726 1 0.575005 0.0748733 0.0500386 0.0285328 -3.31336 -0.0584292 0.0393981 0.0811994
1725 1 0.550104 0.0497178 0.0499575 0.0488817 -3.30517 0.0755629 0.115263 0.020358
1805 1 0.550028 0.100301 0.0500585 0.0222174 -3.31958 0.0195115 -0.0688126 0.0165154
131 1 0.624857 0.0500926 0.0248966 0.0157246 -3.31294 -0.0255057 -0.0206523 0.108793
132 1 0.599909 0.0756204 0.0253634 0.0956716 -3.30004 0.0492049 -0.21484 -0.127864
211 1 0.625311 0.0999825 0.0249501 0.0284787 -3.31016 -0.000730526 0.0410036 -0.0179175
130 1 0.624995 0.0754932 -0.000190952 0.0345625 -3.29426 -0.0496216 -0.059363 0.0799022
136 1 0.650073 0.0749259 0.0247317 0.0222091 -3.30536 0.00851776 0.0478996 0.0565115
140 1 0.699855 0.0747163 0.0248427 0.0219843 -3.3117 0.0310064 0.0450476 0.0591956
213 1 0.650037 0.100403 -0.000434371 0.037604 -3.29991 0.0622217 -0.0637046 0.112536
1813 1 0.649611 0.0997485 0.0502765 0.0549873 -3.30923 0.108282 0.0568081 -0.104817
1817 1 0.700207 0.100147 0.0503364 0.0466923 -3.30141 -0.0559455 -0.113454 -0.100304
134 1 0.674985 0.0749907 -0.000292156 0.0160771 -3.29263 -0.0654654 -0.0060808 0.0935333
217 1 0.700168 0.0997468 1.06235e-05 0.0348401 -3.29411 -0.0814969 0.0977998 -0.0275314
144 1 0.750082 0.0750663 0.0251656 0.0206905 -3.31145 -0.00265961 0.0247559 -0.0850639
1738 1 0.724882 0.0751584 0.0500463 0.0250111 -3.30917 0.0176839 -0.0397376 -0.0366
138 1 0.725047 0.0750917 -9.98428e-05 0.0139726 -3.30153 0.0467604 -0.0954883 0.064424
148 1 0.80022 0.0750511 0.0246681 0.0217625 -3.31315 0.0142599 0.0235268 0.0724173
1745 1 0.8 0.0502674 0.0501883 0.0232953 -3.30117 0.0552257 -0.0692521 -0.108188
223 1 0.775207 0.100423 0.0245954 0.0696574 -3.30733 -0.0817891 -0.139534 0.0602638
1742 1 0.775201 0.0749105 0.0496888 0.0325973 -3.30161 -0.0231922 0.0937489 0.0608174
1825 1 0.799784 0.100207 0.0500093 0.0171415 -3.31298 -0.017506 -0.0601059 0.00131993
151 1 0.874652 0.0503738 0.0252124 0.0425493 -3.30144 0.057467 -0.106494 -0.0359654
152 1 0.850012 0.0752208 0.0249498 0.00895891 -3.30614 -0.070022 -0.0180599 -0.00713215
150 1 0.875065 0.0750251 -0.000129371 0.0168524 -3.30086 0.0197317 0.0637702 0.0711348
1829 1 0.849757 0.100132 0.0498201 0.0286528 -3.30718 0.0763877 0.067008 0.0678203
231 1 0.874804 0.100165 0.0251147 0.0140023 -3.3134 0.106475 0.00944054 -0.0496889
227 1 0.825231 0.100151 0.0247798 0.0240239 -3.3021 -0.0599876 -0.0180308 0.0693996
1746 1 0.825032 0.075421 0.0502401 0.0304675 -3.31079 -0.0311837 -0.0798991 -0.0978562
1750 1 0.875197 0.0752303 0.0499728 0.0124126 -3.30855 -0.0472863 -0.00873985 0.0202349
156 1 0.900044 0.0748165 0.0251622 0.0343863 -3.30519 -0.0456079 0.122799 -0.132688
1833 1 0.900079 0.100315 0.0500028 0.0132761 -3.30562 0.0590161 -0.006359 -0.0993926
1754 1 0.924983 0.0751452 0.0494429 0.0475651 -3.30467 0.0529497 0.000698976 0.155029
154 1 0.924965 0.0752841 -0.000181962 0.00983988 -3.30482 -0.0215583 -0.00824693 0.0473852
233 1 0.900145 0.100315 0.000110382 0.0126109 -3.32212 -0.0766934 9.32027e-05 -0.0148928
160 1 0.95005 0.0753195 0.0247242 0.01336 -3.30303 0.0304663 -0.077592 0.0468353
158 1 0.974987 0.0752892 7.32338e-05 0.0143475 -3.31475 0.00498538 -0.0605989 -0.084708
1758 1 0.975088 0.0753835 0.0500601 0.010598 -3.3 -0.014134 0.0487191 -0.0713538
163 1 0.0249824 0.100012 0.0250826 0.0156861 -3.29994 0.0334937 0.0134349 0.0169036
1765 1 0.0496627 0.0998764 0.0502014 0.0243988 -3.31007 0.107014 0.0365176 -0.0390172
168 1 0.0494962 0.125215 0.0252722 0.043561 -3.32306 0.10639 -0.0100566 -0.0745712
164 1 8.93052e-05 0.125385 0.0251626 0.0269239 -3.30972 -0.0765122 -0.0284467 -0.0182181
245 1 0.0503714 0.149989 7.81283e-05 0.0374243 -3.31298 -0.0740907 -0.0427853 0.0198212
172 1 0.100296 0.125106 0.0250612 0.017052 -3.30807 0.00295028 -0.0805317 0.0241058
247 1 0.0753163 0.150034 0.0252093 0.0186095 -3.3097 -0.0555394 -0.0427993 -0.038751
169 1 0.100296 0.0998719 0.000512208 0.0229841 -3.31316 0.0504331 0.0109299 -0.0853512
1766 1 0.0750017 0.125049 0.0500191 0.00746177 -3.32536 -0.0310598 -0.0184965 -0.0173709
1769 1 0.100173 0.0999734 0.050344 0.0178242 -3.31182 -0.0139865 0.00862876 -0.10145
175 1 0.175302 0.100004 0.025289 0.0186108 -3.30887 0.0694162 -0.0195668 0.0103785
171 1 0.125348 0.100006 0.0251427 0.017311 -3.31821 0.0182717 0.0279809 0.0808129
176 1 0.150521 0.125029 0.0255987 0.0479955 -3.29603 -0.062844 -0.0997563 -0.0658107
1773 1 0.150202 0.0992875 0.0506207 0.106577 -3.31451 -0.0184854 0.195744 -0.0943761
1770 1 0.125061 0.12475 0.0500643 0.0213705 -3.30697 0.0974387 -0.0568156 0.0369776
180 1 0.200312 0.125189 0.0251426 0.0280052 -3.29434 0.018768 -0.0662341 -0.0219727
179 1 0.224975 0.0999547 0.0248987 0.0126052 -3.29977 -0.0103827 0.048517 0.0362131
1778 1 0.224947 0.124927 0.0502266 0.0165938 -3.30732 0.0531286 0.0433085 -0.0663007
1777 1 0.200607 0.0997619 0.0501278 0.0201835 -3.31404 -0.00225939 -0.0841152 0.0593073
183 1 0.274528 0.099893 0.0247504 0.0609056 -3.30143 0.0774527 0.0753512 0.0850042
184 1 0.249773 0.125353 0.0248258 0.0251537 -3.32321 0.0253757 -0.031451 0.0535427
1861 1 0.249744 0.150603 0.0500103 0.0571565 -3.31242 0.0804016 -0.171039 0.00612047
1781 1 0.250326 0.0999999 0.0496661 0.050027 -3.31107 -0.0827575 0.0452495 0.106653
1782 1 0.275251 0.12532 0.0501339 0.0378549 -3.31175 -0.136454 0.0259536 -0.0986754
182 1 0.275466 0.125183 -9.80491e-05 0.0588515 -3.30378 -0.162698 -0.0148055 0.00128682
187 1 0.325234 0.0999503 0.0251667 0.0248635 -3.30973 0.0416639 0.0207025 -0.0112693
185 1 0.29998 0.100008 0.000626531 0.0671534 -3.2931 -0.000147815 0.00339284 -0.184469
188 1 0.299866 0.125171 0.0250861 0.0133384 -3.30173 0.0185704 -0.0493542 0.0899433
192 1 0.35002 0.125207 0.02483 0.0366301 -3.30803 -0.018977 -0.0515013 0.0800348
267 1 0.324922 0.150224 0.0253377 0.0189985 -3.30751 0.026244 -0.0481792 -0.0624524
1869 1 0.349602 0.149995 0.0504266 0.0256946 -3.3164 0.0887916 0.061251 -0.099101
1865 1 0.30001 0.150295 0.0501713 0.014703 -3.30844 -0.000889436 -0.0602291 0.00511024
1786 1 0.325051 0.124838 0.0502143 0.0201009 -3.31073 -0.0344136 0.0662094 -0.0309044
196 1 0.399928 0.12466 0.0253385 0.0234969 -3.30475 0.032124 0.0772684 -0.0205085
200 1 0.450119 0.125122 0.0251129 0.0287791 -3.30484 -0.0854733 -0.14492 -0.0237134
1877 1 0.449751 0.149924 0.0499151 0.0172734 -3.28992 -0.065188 -0.0437926 0.0134883
275 1 0.42507 0.149819 0.0250622 0.0203268 -3.31477 -0.0170019 0.0381452 0.0198288
203 1 0.525422 0.100441 0.0246204 0.0476937 -3.30795 -0.0807193 -0.0298565 0.127828
204 1 0.499701 0.125172 0.0249258 0.0187279 -3.31638 -0.000334523 -0.0273934 0.0693954
279 1 0.474394 0.14992 0.0248893 0.0373742 -3.29711 0.081909 0.0528291 0.0255743
1798 1 0.474561 0.125179 0.0501157 0.0254168 -3.30592 0.0977589 -0.0395194 0.0162887
201 1 0.500149 0.10015 6.2989e-05 0.01416 -3.30206 -0.00672979 -0.0304728 -0.0653091
202 1 0.524891 0.125239 0.000201958 0.0333972 -3.30474 0.032023 -0.0319692 -0.0256935
207 1 0.575156 0.0999192 0.0250081 0.0127898 -3.2891 -0.0244805 0.111132 0.0235379
208 1 0.550658 0.125027 0.0248653 0.0275519 -3.30542 -0.0596163 0.0427781 0.0669402
206 1 0.575181 0.124853 -0.000136305 0.0123228 -3.29488 0.0826941 0.0420489 -0.0347195
285 1 0.550242 0.14984 0.000305375 0.0330074 -3.31669 0.0454341 0.119193 -0.0870387
212 1 0.599942 0.124857 0.0244885 0.0521533 -3.29971 0.0987933 -0.00855612 0.13991
210 1 0.624926 0.124728 -0.000192678 0.0274217 -3.29516 -0.0514574 0.0770069 -0.0209241
209 1 0.599966 0.0997962 -0.000156615 0.0212457 -3.30802 0.00363906 0.083117 -0.0360083
215 1 0.675081 0.1 0.024797 0.0115541 -3.33001 -0.0379588 0.0055784 0.0702145
216 1 0.650018 0.125112 0.0246709 0.0254751 -3.31681 0.0624441 -0.0277765 0.0732774
220 1 0.700188 0.125147 0.0249088 0.0118679 -3.30639 -0.0615066 0.00438553 -0.0684981
214 1 0.67557 0.125219 -0.000512001 0.069306 -3.31612 -0.00386651 -0.0293655 0.11279
219 1 0.724751 0.0998129 0.0248492 0.024617 -3.30287 0.0167266 -0.0286437 0.0714862
224 1 0.749404 0.124679 0.0247943 0.0776439 -3.30749 0.107863 0.0923676 -0.0520053
1821 1 0.750202 0.100035 0.0500435 0.0253071 -3.31563 -0.0450032 -0.0540649 -0.0244445
1818 1 0.724769 0.125197 0.0496914 0.0275427 -3.30122 0.0635513 -0.0345783 0.109129
299 1 0.725365 0.150108 0.024792 0.0285152 -3.30288 -0.0387063 -0.0112373 -0.0384817
218 1 0.724546 0.125071 -0.000393992 0.046651 -3.30468 0.0208513 -0.0192957 -0.00486971
301 1 0.750109 0.149607 -0.000684867 0.0733736 -3.30956 0.0291478 0.045991 0.162946
228 1 0.800158 0.124973 0.0253824 0.0446014 -3.298 -0.0100941 0.05664 -0.0529558
222 1 0.775583 0.125106 6.28996e-05 0.070698 -3.31272 -0.115827 -0.0421529 -0.0201082
232 1 0.850186 0.125285 0.0246138 0.0563664 -3.30581 -0.0793462 -0.0632533 0.220137
230 1 0.87494 0.125152 -7.68564e-05 0.0103468 -3.30214 0.103643 -0.0331877 0.0197165
311 1 0.874987 0.150067 0.0249288 0.00738793 -3.30798 0.0203539 0.0706866 -0.00547097
1909 1 0.849914 0.149996 0.0499312 0.0127801 -3.30255 0.0147674 -0.0180508 -0.000310528
1830 1 0.875126 0.125381 0.050091 0.0170258 -3.30983 -0.038269 -0.0805317 -0.0501533
229 1 0.850028 0.0997891 2.27455e-05 0.0225365 -3.29586 0.0305305 0.0151829 -0.0335325
309 1 0.849693 0.149708 0.000143848 0.0473957 -3.30755 -0.0105567 0.131662 -0.0990314
235 1 0.925301 0.100042 0.0247732 0.0209375 -3.3106 -0.0746918 0.0799141 0.0359729
236 1 0.900196 0.125333 0.0250777 0.0101256 -3.31369 -0.0501098 -0.0710985 -0.104423
1834 1 0.925046 0.125358 0.0496046 0.0409796 -3.31071 0.0997523 -0.0505964 0.105001
234 1 0.925464 0.125293 1.35709e-05 0.00841773 -3.31654 -0.0752857 -0.0113199 0.00524204
315 1 0.925484 0.150196 0.0248044 0.0176669 -3.31213 -0.0623546 -0.00328641 0.00021817
237 1 0.950404 0.100239 -0.000157353 0.00989214 -3.30421 -0.0256065 0.0145787 0.00630385
239 1 0.97521 0.100227 0.0249942 0.00765248 -3.30503 0.0338098 -0.045465 0.0148696
240 1 0.950658 0.125066 0.0252009 0.0487923 -3.30545 -0.0833149 0.052247 -0.102708
319 1 0.974992 0.15049 0.0249591 0.0318882 -3.31307 0.13066 -0.0571183 0.0605653
243 1 0.0247029 0.150222 0.0245888 0.0527253 -3.29996 0.0371096 0.0145867 0.101088
248 1 0.0500493 0.174866 0.0250407 0.0175164 -3.31397 -0.0254984 0.0465506 0.0249655
242 1 0.0250306 0.175058 -0.000439702 0.0265521 -3.30438 0.0432879 0.0062962 0.113429
252 1 0.100018 0.174989 0.0248378 0.029681 -3.30954 0.0747266 -0.0294883 0.0777343
327 1 0.0751703 0.200056 0.0249804 0.0100688 -3.29653 -0.0862394 -0.0346374 0.020068
246 1 0.0746356 0.175213 9.55792e-05 0.042405 -3.30148 0.0913312 -0.0767866 0.0206228
1846 1 0.0753861 0.1749 0.0500412 0.0169672 -3.31453 -0.0546115 -0.00352196 -0.0282
1929 1 0.0999951 0.1999 0.049815 0.0197084 -3.30416 -0.000450437 0.0427036 0.0519073
255 1 0.175148 0.14969 0.0250204 0.0190682 -3.30253 0.0492939 0.146679 0.0144296
251 1 0.125571 0.14999 0.0253942 0.0253368 -3.30746 -0.0318849 0.0310626 -0.0916125
256 1 0.150134 0.17501 0.0253473 0.0178197 -3.30393 -0.00628252 -0.0565414 -0.0829014
254 1 0.174897 0.174869 -1.09663e-05 0.0149671 -3.30747 0.0493512 0.0281379 0.092013
250 1 0.125121 0.174855 0.000126231 0.0126872 -3.30859 0.122808 -0.00272686 0.0226957
335 1 0.174769 0.199905 0.0247916 0.0404468 -3.30387 -0.00360657 -0.0153014 0.116515
1850 1 0.125088 0.175117 0.0503234 0.026545 -3.31084 -0.0472127 -0.0967724 -0.0771465
1854 1 0.174989 0.174521 0.0500469 0.0327646 -3.30003 0.0289859 0.130845 0.0234801
259 1 0.224833 0.15031 0.0252184 0.0213413 -3.29493 0.0209874 -0.0711308 -0.0669469
260 1 0.200201 0.175124 0.0251566 0.0213684 -3.30493 -0.132973 -0.0121095 -0.0753986
1857 1 0.200001 0.150123 0.0501339 0.0141937 -3.29975 0.0629214 -0.0605563 0.00775428
257 1 0.200017 0.149985 -0.000184377 0.0165295 -3.30929 -0.0120071 0.0300911 0.0577516
263 1 0.27505 0.150088 0.0248455 0.0160783 -3.2981 -0.00856618 -0.0227986 0.106026
264 1 0.250211 0.174988 0.0251307 0.0198166 -3.29477 -0.00670723 0.0544961 -0.00889144
343 1 0.275079 0.200027 0.0250541 0.0139415 -3.31018 0.0370759 0.0434296 0.0105848
1862 1 0.275115 0.175331 0.0502524 0.0212778 -3.29337 0.0398244 -0.0510269 -0.0689752
268 1 0.299928 0.17484 0.0251946 0.0208638 -3.30704 0.00196121 0.0965449 -0.0301762
272 1 0.349757 0.175216 0.0249344 0.0386889 -3.30684 0.0109164 -0.10194 0.147738
1866 1 0.324744 0.175321 0.050465 0.0360095 -3.30455 0.0417595 -0.0582774 -0.0990603
266 1 0.324972 0.174903 4.48711e-05 0.00992413 -3.3103 -0.0727796 -0.0254438 -0.0370975
1945 1 0.299965 0.20024 0.0503355 0.0139449 -3.28413 0.00638791 -0.0369944 -0.115631
273 1 0.400687 0.150068 0.000118685 0.07141 -3.31112 -0.103086 -0.00453533 -0.0338657
271 1 0.375121 0.150016 0.024952 0.0241968 -3.30579 -0.109699 0.0123458 -0.0077326
1873 1 0.399113 0.149639 0.0496515 0.120304 -3.29327 0.186026 0.0462251 0.129155
276 1 0.399958 0.174911 0.0249817 0.022182 -3.30575 0.0604599 0.0170269 -0.00609697
1870 1 0.375113 0.175032 0.0501629 0.0261914 -3.30957 -0.0564811 -0.0359705 -0.0398318
1953 1 0.400057 0.200474 0.0501486 0.0907771 -3.305 -0.0465974 -0.142184 -0.0186293
351 1 0.374906 0.199765 0.0254208 0.0381022 -3.30254 0.0632687 0.0814527 -0.159043
280 1 0.450174 0.17523 0.0252413 0.0471555 -3.30451 -0.0870632 -0.0503343 0.00587564
274 1 0.42539 0.174911 -0.000102982 0.0226826 -3.29635 0.0495143 -0.00783255 0.0658408
357 1 0.449873 0.200162 0.000159706 0.0155256 -3.29271 -0.0267064 -0.0168558 -0.0295122
1957 1 0.449738 0.199969 0.0502469 0.0305767 -3.3131 0.0796304 -0.0375111 -0.0879209
1881 1 0.500055 0.149948 0.0499376 0.00697838 -3.31087 -0.0117497 -0.0606049 0.0123824
283 1 0.5253 0.149965 0.0249192 0.0159393 -3.30723 -0.0242262 -0.0694768 0.0774482
284 1 0.49999 0.174574 0.0247623 0.0334712 -3.3057 -0.122485 0.0550473 0.105943
1878 1 0.474902 0.174549 0.0500601 0.0469952 -3.30868 0.109845 0.140703 -0.0352816
1882 1 0.525011 0.174629 0.049904 0.0183946 -3.30295 0.0122324 0.0483105 0.00758566
287 1 0.575724 0.149938 0.0248453 0.0408125 -3.31121 -0.0418573 0.0723592 0.0183313
288 1 0.550024 0.174919 0.0251098 0.00992778 -3.30732 0.0609088 -0.00736319 -0.0621945
286 1 0.575135 0.175504 8.47316e-05 0.0646718 -3.31581 -0.0414842 -0.181184 -0.0139884
291 1 0.624877 0.150071 0.0250177 0.0251824 -3.30315 -0.0384562 -0.0748263 0.0164166
292 1 0.600354 0.175064 0.0250265 0.0125078 -3.30576 -0.0169956 0.0059439 -0.00856987
289 1 0.60048 0.150079 -0.000422402 0.0380824 -3.31121 -0.107527 0.0161927 0.107638
290 1 0.625119 0.175359 -0.000317594 0.0358553 -3.29669 -0.0301744 -0.0662039 0.0648928
295 1 0.674939 0.15029 0.0249837 0.0347903 -3.29841 0.0532734 -0.127896 -0.0563297
296 1 0.649794 0.174863 0.0246591 0.0291682 -3.30118 0.0138553 0.0978171 0.0338574
293 1 0.649848 0.149889 0.000205276 0.0437822 -3.31223 0.00763298 0.00363894 -0.103689
300 1 0.700116 0.174752 0.0249063 0.0301693 -3.30849 0.0132182 0.109974 0.0199183
294 1 0.675177 0.174677 -0.000151563 0.0399759 -3.29888 -0.0781883 0.066854 0.0594318
297 1 0.700333 0.150228 -0.000294139 0.0251003 -3.29649 -0.0558921 -0.0660657 0.0624713
304 1 0.750293 0.174878 0.0247046 0.01151 -3.30875 -0.00981423 0.070564 -0.00398698
379 1 0.725214 0.200016 0.0252119 0.0253317 -3.31066 0.0692924 -0.0464212 -0.0510712
298 1 0.725099 0.175062 -0.0001464 0.0129198 -3.30002 0.0543267 -0.014106 0.0494066
381 1 0.750529 0.199856 -8.41024e-05 0.0233463 -3.30882 -0.0613604 0.0225081 0.0713691
305 1 0.800499 0.149711 -0.000241046 0.0265556 -3.29874 -0.0619986 0.0216987 0.0348661
303 1 0.774991 0.149971 0.0248522 0.0122559 -3.31968 -0.0202172 -0.0707824 -0.0596156
308 1 0.800222 0.17508 0.0249209 0.00877135 -3.2957 -0.00760945 -0.0464018 -0.0286269
302 1 0.77547 0.174688 -0.000248221 0.0203449 -3.30806 0.0286456 0.0328482 0.0531021
383 1 0.775404 0.200044 0.0249651 0.013957 -3.30556 -0.0432406 -0.00673181 -0.0220231
307 1 0.824884 0.14988 0.0250793 0.0163303 -3.30034 -0.000193965 0.0316928 0.0166941
312 1 0.849664 0.175226 0.0250594 0.0184565 -3.30945 0.00943989 -0.0355576 -0.0691243
391 1 0.875094 0.200154 0.0251132 0.0160506 -3.31626 -0.0626425 0.0198916 -0.00610132
389 1 0.849829 0.199957 0.000166781 0.0355021 -3.31993 0.0418124 -0.00509233 -0.0649614
1906 1 0.825051 0.175082 0.0500414 0.00729983 -3.3031 -0.00671848 0.0104091 -0.00200651
1910 1 0.874563 0.175004 0.0498006 0.038029 -3.31601 0.073974 0.0239546 0.0731269
310 1 0.874798 0.17498 5.83195e-05 0.0200185 -3.31374 -0.0441142 0.0317602 0.00510991
313 1 0.900203 0.150353 -0.000155303 0.0133518 -3.31297 0.0382055 -0.0601494 0.105749
316 1 0.900059 0.175169 0.0249835 0.00581353 -3.31685 -0.0126739 -0.0222291 -0.0931789
314 1 0.925643 0.175119 -0.000231987 0.0439051 -3.30629 -0.0670951 0.0608155 0.140155
395 1 0.925044 0.200351 0.0251936 0.0253103 -3.3096 -0.0368323 -0.0422564 -0.107904
1913 1 0.9002 0.150136 0.0499649 0.00992654 -3.3012 -0.0123772 0.058551 -0.0401923
1914 1 0.924823 0.175244 0.0495102 0.0545133 -3.30038 0.103902 0.0148965 0.142902
393 1 0.900055 0.200098 0.000120738 0.0132218 -3.31183 0.0366805 -0.0430064 0.0458239
244 1 1.00018 0.175298 0.0248856 0.0106222 -3.3059 -0.0403393 -0.0414317 0.0127014
320 1 0.950163 0.175341 0.0249497 0.0111907 -3.30413 0.0305703 0.0392493 0.0149835
318 1 0.975152 0.17502 -0.000101696 0.0102439 -3.30395 -0.0122707 0.0366684 0.00199899
1917 1 0.950073 0.150645 0.0499914 0.0449481 -3.30061 0.0259712 -0.113464 -0.0529242
397 1 0.950409 0.20038 0.000317672 0.0428202 -3.31192 -0.120124 -0.0247769 -0.0788603
323 1 0.0249982 0.200009 0.0248581 0.00399576 -3.30205 0.0520945 0.026137 0.0372805
328 1 0.0501317 0.224961 0.0248337 0.0143043 -3.31466 -0.0687861 0.0305682 0.030919
322 1 0.02478 0.225123 -0.000115158 0.0102306 -3.29947 0.0401462 -0.00685271 0.0427456
403 1 0.0249874 0.250073 0.0252633 0.0216034 -3.3082 0.0179941 -0.079645 -0.0887166
321 1 3.08457e-05 0.200089 2.19048e-05 0.0130817 -3.30311 0.00579171 -0.0127538 -0.0526941
332 1 0.0998461 0.22507 0.0250558 0.012751 -3.30157 0.134987 -0.0463921 0.0431864
407 1 0.0752459 0.249832 0.0252023 0.0248443 -3.3147 -0.114737 0.119993 -0.0250214
2009 1 0.0995407 0.249862 0.0504181 0.0390497 -3.29804 0.0427469 0.0333392 -0.029401
331 1 0.125241 0.199985 0.0251572 0.0141199 -3.30199 -0.0458839 0.000414095 0.0239241
1933 1 0.149972 0.199643 0.0505056 0.0403621 -3.30891 0.0237548 0.101827 -0.0988754
336 1 0.149704 0.224907 0.0254325 0.0279157 -3.30723 -0.0115637 0.0536961 -0.0344586
415 1 0.175165 0.249453 0.0250964 0.0391006 -3.31109 -0.0699486 0.0255151 0.02967
411 1 0.124576 0.250058 0.0253659 0.0205697 -3.31365 0.0595074 -0.0388038 -0.0199952
1930 1 0.12491 0.22497 0.0504012 0.0192016 -3.31385 0.0357208 -0.00503169 -0.0629329
2013 1 0.149949 0.250193 0.0502458 0.0334892 -3.30969 0.0111718 -0.128863 -0.0530856
339 1 0.225297 0.199975 0.0252999 0.0260632 -3.30605 0.0500794 0.0211989 -0.0759105
340 1 0.200308 0.224605 0.0249508 0.0412501 -3.29186 -0.0620268 0.0475202 0.0881952
2017 1 0.19988 0.250025 0.0504556 0.0282954 -3.29375 -0.0397548 -0.0486047 -0.094116
1941 1 0.250178 0.200216 0.0500064 0.00832145 -3.30951 -0.0270824 0.0534489 0.0275236
344 1 0.250267 0.225321 0.0248817 0.0306806 -3.31343 -0.0521491 -0.0968725 0.134384
423 1 0.274931 0.250352 0.0251429 0.0194611 -3.30372 0.139067 -0.0293632 -0.0385877
1942 1 0.275684 0.225084 0.0501301 0.0535371 -3.30228 -0.143316 0.0212499 -0.0557142