ITEM: TIMESTEP
20000
ITEM: NUMBER OF ATOMS
32000
ITEM: BOX BOUNDS pp pp pp
8.0970255350047768e+00 7.2902974464990066e+01
-3.1793670533851284e+00 8.4179367053379082e+01
-6.7141349958098928e+00 8.7714134995806120e+01
ITEM: ATOMS id type xs ys zs c_csym c_peratom fx fy fz
2 1 0.0410766 0.0217287 0.00322601 0.0510409 -3.35539 0.104496 0.0484489 0.0997192
78 1 0.0054005 0.0210499 0.0214797 0.117515 -3.35324 0.153043 0.0371236 0.0505105
81 1 0.0368769 0.044319 0.0242081 0.0863013 -3.35463 -0.00166082 0.055521 -0.00172432
159 1 0.00197857 0.0438367 0.0422486 0.132141 -3.34714 -0.132009 0.151697 0.19941
79 1 0.00147008 0.997682 0.0438496 0.0583387 -3.3215 -0.00265468 0.066569 -0.0103778
8 1 0.0673282 0.0213106 0.0281297 0.0722196 -3.36412 -0.0531365 0.015492 -0.1009
3 1 0.036571 0.998243 0.0257596 0.112144 -3.35411 0.00524893 -0.0227122 -0.0943635
1 1 0.0111089 0.998542 0.000656031 0.135602 -3.36095 -0.232437 -0.157693 0.124763
30559 1 0.0105372 0.0452048 7.7396e-05 0.0376352 -3.33568 0.232298 -0.0217417 0.00565048
12 1 0.101726 0.0216804 0.0094675 0.0671645 -3.36432 0.0425535 -0.0282405 0.017961
87 1 0.0716633 0.0451341 0.00567058 0.0935937 -3.3585 0.13195 0.0480603 0.0942907
1689 1 0.0977621 0.0454163 0.0303663 0.116636 -3.3496 -0.100578 -0.0602383 -0.0140422
1609 1 0.0972029 0.997291 0.0318881 0.0953443 -3.36431 -0.0593375 0.106059 -0.00878725
1610 1 0.127071 0.0217393 0.0341733 0.08408 -3.34573 -0.129689 -0.0864526 -0.0151741
91 1 0.13347 0.0444123 0.0126582 0.197626 -3.3603 -0.0693866 0.0672601 -0.285012
16 1 0.162424 0.0203297 0.0156478 0.170577 -3.35164 -0.0152808 0.236858 -0.121954
1614 1 0.186443 0.0210313 0.0406968 0.136411 -3.32322 -0.178809 0.0382947 0.18178
1693 1 0.156882 0.045015 0.0373631 0.0297625 -3.32261 0.0817009 -0.0386293 0.0584167
95 1 0.19184 0.0446748 0.0196632 0.164717 -3.31392 -0.0116966 0.00754294 -0.077821
20 1 0.219487 0.0204103 0.022729 0.20042 -3.30702 0.0561311 0.0612139 0.0361632
1697 1 0.215831 0.0445845 0.0452291 0.155284 -3.33729 -0.000226571 0.0528042 -0.0265095
99 1 0.249769 0.0440644 0.0276992 6.66344 -3.35176 0.142968 -0.0281228 -0.0427827
18 1 0.252902 0.0212484 0.00441547 7.75704 -3.29527 0.0510259 0.111988 -0.0129475
97 1 0.225776 0.045398 0.00161392 6.56282 -3.32005 0.00409685 0.0380642 -0.0488038
24 1 0.276238 0.0183995 0.0296893 6.71415 -3.33739 -0.00501739 0.278087 0.0393944
22 1 0.294952 0.0300213 0.00414977 0.647296 -3.29342 -0.338105 -0.0281693 -0.254132
28 1 0.31797 0.0254912 0.0279642 0.232583 -3.30969 0.147373 0.0285441 0.215237
25 1 0.317476 0.00336831 0.00502992 2.02054 -3.27686 0.288571 -0.0130165 0.149151
32 1 0.360799 0.0309598 0.0265312 5.41913 -3.29904 0.136109 -0.0123957 0.0336953
31 1 0.383443 0.00484749 0.0213966 5.71855 -3.281 0.0802281 0.099051 0.0196588
36 1 0.404026 0.0365316 0.0242795 6.77409 -3.3199 -0.133178 -0.0466084 -0.0503499
35 1 0.424296 0.00920207 0.0190405 9.37989 -3.25559 -0.0574411 -0.210501 -0.0528341
1638 1 0.45312 0.0310074 0.0236746 7.16825 -3.2462 -0.121549 0.0880588 -0.144436
1637 1 0.450961 0.00846643 0.0431928 7.17759 -3.32199 0.155533 0.00993841 0.396978
1641 1 0.490498 0.0197177 0.036555 11.409 -3.28058 -0.0456069 -0.117567 0.0932863
44 1 0.488863 0.0289887 0.00748751 11.2603 -3.30701 -0.114585 -0.0442272 -0.0929888
43 1 0.529038 0.024733 0.0183031 13.2017 -3.29574 0.192253 -0.149611 0.11336
1721 1 0.480746 0.0540374 0.0251411 6.95519 -3.24718 -0.0276678 -0.0260383 0.0046888
48 1 0.56874 0.0369528 0.0350133 6.40322 -3.2306 -0.188453 -0.169051 0.278088
52 1 0.572859 0.0145846 0.016324 5.40458 -3.27618 0.161667 -0.222648 -0.0403428
1650 1 0.601942 0.0165616 0.0404955 0.738872 -3.30849 -0.286756 -0.285343 0.158038
131 1 0.605284 0.0396846 0.0207436 0.368824 -3.30774 0.00727317 -0.163903 -0.363213
1733 1 0.631415 0.0399399 0.0448863 0.162736 -3.31413 -0.0317401 0.0226614 0.0592609
56 1 0.636533 0.0171042 0.0236741 0.287805 -3.34538 -0.0746327 -0.172409 0.151466
135 1 0.666802 0.0412572 0.0276171 6.91439 -3.24261 -0.177452 -0.233273 0.0302235
133 1 0.640469 0.0397213 0.0031243 0.0639929 -3.35058 -0.0290186 -0.00161635 -0.0773776
54 1 0.671187 0.0161519 0.00711538 0.178569 -3.33078 -0.045484 0.183005 -0.057631
60 1 0.696068 0.0171574 0.0320482 6.41714 -3.24849 -0.00564088 0.0687984 -0.11305
139 1 0.700991 0.0407292 0.0116716 12.868 -3.24289 0.0956422 -0.0361273 -0.032761
64 1 0.730857 0.0174214 0.0161918 12.0696 -3.26486 0.137246 0.0676003 -0.0905316
68 1 0.788028 0.0176898 0.0215253 13.7444 -3.27055 -0.0852197 0.236049 0.209057
143 1 0.758547 0.0419359 0.0174435 14.0244 -3.267 -0.140351 -0.102275 0.0371312
1745 1 0.783415 0.0416906 0.0416627 7.3393 -3.2591 0.0682717 -0.0681845 -0.0900764
72 1 0.848724 0.0200979 0.0275313 0.0841415 -3.34855 0.187219 -0.113302 0.0391611
147 1 0.818483 0.0422717 0.0237464 0.0555012 -3.32723 -0.0143755 0.0762208 -0.0869246
149 1 0.853996 0.0434951 0.00604463 0.063866 -3.3468 0.0437872 -0.132517 -0.0949071
66 1 0.82366 0.0190382 0.00356781 0.0621255 -3.34667 0.0650423 -0.0653807 -0.140068
1666 1 0.814434 0.0194861 0.0456764 7.17187 -3.29015 -0.198385 -0.0684643 -0.0345083
76 1 0.909294 0.0208843 0.0340153 0.0493279 -3.35558 0.0067617 -0.140566 0.083251
70 1 0.884475 0.0204221 0.00935252 0.0408685 -3.36095 -0.020866 -0.0594636 0.0418891
151 1 0.879239 0.043508 0.0306712 0.031691 -3.35146 -0.00119235 0.0576254 -0.0397015
153 1 0.914109 0.0444929 0.0127533 0.192016 -3.34759 0.0547646 -0.0639199 -0.208966
74 1 0.944053 0.0212605 0.0155883 0.14883 -3.35263 0.179211 -0.00813047 -0.0305193
80 1 0.970809 0.0211869 0.0400624 0.0419121 -3.35765 0.0389586 0.0148776 0.0500323
155 1 0.940063 0.043923 0.0363741 0.0868873 -3.35103 0.0346684 0.192719 0.151541
157 1 0.975794 0.044839 0.0183538 0.060581 -3.33856 -0.0985702 -0.149272 -0.00818575
75 1 0.941121 0.997909 0.0373421 0.0978152 -3.33493 -0.233746 -0.0155049 0.112592
158 1 0.00602422 0.0679386 0.0210982 0.0488176 -3.33614 0.0604303 0.0298683 -0.00512963
161 1 0.0364861 0.0918985 0.024345 0.134172 -3.3546 0.0426265 -0.073038 -0.0531801
239 1 0.000522513 0.0908154 0.0420196 0.0934707 -3.36356 0.0544887 -0.00219112 0.199707
30484 1 0.0412138 0.0691737 0.0032549 0.200238 -3.35271 0.16699 -0.176566 -0.213289
82 1 0.067227 0.0685617 0.0266904 0.0986494 -3.35363 -0.0301083 0.0203616 0.0825191
92 1 0.103357 0.0691879 0.00903501 0.0741214 -3.35484 -0.0251728 -0.126878 -0.0789802
167 1 0.0969169 0.0924314 0.0303252 0.0332532 -3.37338 -0.0128451 -0.0118588 0.0687698
165 1 0.072759 0.0926429 0.00491615 0.220247 -3.35514 -0.0906314 -0.101954 0.161094
1690 1 0.128182 0.0685372 0.0338292 0.145185 -3.33966 -0.218374 0.128388 0.0679817
171 1 0.132915 0.0928381 0.0125155 0.129477 -3.323 -0.0379019 -0.0385319 0.0427857
96 1 0.162355 0.0686629 0.0161413 0.170411 -3.29704 0.100285 -0.00683209 -0.0125857
1694 1 0.187142 0.0683344 0.0406531 0.244361 -3.35195 0.0607704 0.0836501 0.14804
1773 1 0.156917 0.0922287 0.0374822 0.144151 -3.34415 0.0143174 0.0381697 0.0903312
175 1 0.193486 0.0927347 0.0211095 6.17692 -3.35714 0.103546 0.030342 0.00532889
100 1 0.224154 0.0693454 0.0238547 6.67078 -3.35883 -0.0341479 -0.135442 0.0745779
1777 1 0.218161 0.0929471 0.0456633 5.6163 -3.33242 0.00215675 -0.201249 -0.0520805
104 1 0.269784 0.0768247 0.0235765 0.702776 -3.31678 -0.164941 0.0479843 -0.00703412
103 1 0.293114 0.050843 0.0259769 0.308809 -3.29259 -0.0924189 0.14167 0.311372
108 1 0.312868 0.0830191 0.0217325 0.673542 -3.32872 -0.128655 0.123093 0.0135757
101 1 0.267604 0.0547839 0.00252602 0.703384 -3.31708 0.00973778 -0.0457763 -0.23337
107 1 0.335964 0.05648 0.0251918 0.674074 -3.28848 0.117872 0.111063 -0.236442
112 1 0.353996 0.0911477 0.0170433 6.73688 -3.35449 0.211282 -0.215031 0.0988009
1706 1 0.338 0.0806147 0.0453802 0.62886 -3.33423 -0.116334 -0.0356804 -0.0397564
1710 1 0.380673 0.0894557 0.0420029 6.79194 -3.33806 -0.0444125 -0.199311 -0.253162
111 1 0.379724 0.0635085 0.0233427 5.85132 -3.24356 -0.177439 -0.205301 0.372168
116 1 0.395474 0.0877244 0.0099213 2.50712 -3.29919 0.0488635 0.229261 0.136573
115 1 0.408452 0.0585574 0.00244663 1.10628 -3.3006 0.142006 0.114292 0.00595397
1713 1 0.404574 0.0617702 0.0468957 4.45671 -3.2498 -0.268557 -0.11566 -0.301563
1714 1 0.422598 0.0880626 0.0362798 5.27556 -3.29095 0.0822333 -0.16726 -0.0928922
1717 1 0.434797 0.0594501 0.026536 2.19502 -3.26589 -0.104338 -0.146374 0.0839919
119 1 0.454765 0.0544604 0.00193791 6.9886 -3.3151 -0.00821273 -0.150129 -0.346631
120 1 0.438548 0.0831942 0.00806213 0.115642 -3.34588 -0.0211643 0.254178 -0.186847
1718 1 0.464682 0.0832725 0.032927 0.737752 -3.287 0.0353339 -0.0834624 0.0457765
124 1 0.506191 0.0786647 0.0303573 7.11493 -3.26889 0.177261 -0.306495 -0.275066
118 1 0.482583 0.0786511 0.00532985 7.92862 -3.34648 -0.0564376 0.124653 0.0139431
121 1 0.515692 0.0557616 0.00806904 5.33564 -3.29634 -0.163727 0.127643 0.139531
123 1 0.535612 0.0549663 0.0339478 6.58356 -3.30522 -0.313592 -0.0381011 0.0298973
128 1 0.542861 0.0814142 0.0134277 0.455421 -3.29726 -0.452386 0.0910897 -0.376161
1726 1 0.566975 0.0837765 0.0365467 0.302066 -3.3061 0.315715 0.175136 0.275522
127 1 0.574025 0.0612731 0.0165462 6.86037 -3.29578 0.00940611 -0.167202 -0.0199416
1729 1 0.60071 0.0627577 0.0412889 0.518505 -3.30832 -0.0888058 -0.000223325 -0.157087
132 1 0.604527 0.0852333 0.019698 0.254381 -3.33606 -0.245255 0.2325 0.0117323
1730 1 0.630927 0.0863508 0.0438556 6.70582 -3.31332 -0.139877 0.348912 -0.0163489
136 1 0.634763 0.0630822 0.0237694 7.11135 -3.26008 0.202803 0.10469 -0.143525
1734 1 0.661552 0.0643503 0.0468996 12.3669 -3.25883 0.158264 0.0405471 0.020442
215 1 0.639911 0.0869476 0.00314465 7.13867 -3.31494 -0.356006 -0.232412 -0.0189527
140 1 0.670809 0.0644308 0.00821156 12.1557 -3.28088 -0.0410167 0.0877304 -0.072675
144 1 0.727087 0.0648175 0.0145277 12.7177 -3.2655 0.134873 -0.0814804 -0.100963
219 1 0.698756 0.0880071 0.0100784 13.6398 -3.25852 -0.307263 0.0135334 -0.06725
1821 1 0.722921 0.0878138 0.0343856 7.03311 -3.25038 0.109403 0.186643 -0.188036
148 1 0.789138 0.0655754 0.0203998 0.114713 -3.35566 -0.100481 -0.050554 -0.218006
223 1 0.758165 0.0889532 0.0171182 0.125746 -3.34697 -0.0244285 -0.17139 -0.238306
1825 1 0.783409 0.0880824 0.0414775 0.151572 -3.37475 0.0250487 0.110947 0.00694866
1742 1 0.753509 0.0646503 0.037972 7.2296 -3.26909 0.0276389 0.0703958 -0.0491119
152 1 0.848664 0.0664446 0.0267323 0.0364154 -3.35104 0.0547106 0.0204286 -0.0503406
229 1 0.853144 0.0892446 0.00437884 0.15992 -3.34953 -0.0326936 0.103998 0.0886319
146 1 0.823885 0.0658672 0.00198327 0.0796037 -3.35034 -0.162051 -0.0737824 -0.0179177
227 1 0.818358 0.0897142 0.0233077 0.120551 -3.35193 0.105916 -0.118407 0.00288959
1746 1 0.81432 0.0647736 0.0447983 0.287769 -3.34049 -0.187732 0.37359 0.0357558
156 1 0.910016 0.0680225 0.033824 0.270875 -3.36501 -0.0359213 -0.224367 -0.112467
150 1 0.884292 0.0668374 0.00882323 0.0374956 -3.35226 -0.0091022 -0.0236928 -0.0264545
233 1 0.91408 0.0904193 0.0117072 0.0514351 -3.34671 0.123299 -0.0601699 -0.0963357
231 1 0.878852 0.0901241 0.0292643 0.0868855 -3.35627 -0.0390811 -0.037115 0.153081
154 1 0.945608 0.0676046 0.0143117 0.146516 -3.35952 -0.169673 0.10018 0.17981
160 1 0.970684 0.0673409 0.0391174 0.0450982 -3.36019 -0.0745584 0.0656599 0.121146
237 1 0.976195 0.0912303 0.0171734 0.149264 -3.35876 -0.153127 0.0650019 0.127972
235 1 0.939575 0.0909391 0.0360027 0.0603101 -3.36635 0.101484 -0.0864009 0.0605911
241 1 0.0348764 0.138431 0.0245637 0.112608 -3.3475 0.0354106 0.0479712 0.00115833
238 1 0.00634327 0.114642 0.0212673 0.200476 -3.34399 -0.241742 0.0227459 -0.235363
30564 1 0.0407177 0.114969 0.00165242 0.259812 -3.34091 0.092864 0.0936294 0.213759
162 1 0.0652018 0.115361 0.027027 0.0926978 -3.35233 0.0538807 -0.1421 -0.00523643
172 1 0.126752 0.115742 0.0343588 0.160703 -3.35588 -0.166117 0.0275968 -0.0111951
245 1 0.0939435 0.138285 0.0311887 0.191282 -3.34332 0.154875 0.189479 -0.125892
30643 1 0.0688218 0.13868 0.00572088 0.277407 -3.34748 0.141523 0.128522 0.0846077
166 1 0.101984 0.115935 0.00879675 0.199156 -3.3277 -0.17926 0.0911631 0.102747
249 1 0.129188 0.140352 0.0138434 0.671535 -3.34042 0.0544036 0.014216 0.192999
176 1 0.163027 0.117103 0.0176075 5.69572 -3.3442 0.0165242 -0.00462445 0.0109165
255 1 0.184637 0.14504 0.0188432 6.19107 -3.33014 0.0125473 -0.0294041 -0.132437
251 1 0.154717 0.140443 0.0393372 0.638219 -3.3308 -0.16359 -0.0680755 -0.279917
1774 1 0.187065 0.116184 0.0421318 1.76137 -3.3239 -0.0833635 0.117545 -0.044095
179 1 0.240884 0.0997593 0.022039 0.469963 -3.30167 0.0837089 0.0159986 -0.0705229
180 1 0.213249 0.122665 0.0199078 1.38908 -3.31334 -0.116998 0.0320573 -0.00138917
1857 1 0.21079 0.14369 0.0440479 6.49962 -3.32837 -0.0756961 -0.0753861 -0.124638
184 1 0.254335 0.131245 0.018954 0.367912 -3.31899 0.267005 -0.0736897 -0.122328
183 1 0.284534 0.107983 0.0203196 0.178331 -3.34583 -0.0620152 -0.168211 -0.0925682
188 1 0.297435 0.138885 0.0157203 4.20334 -3.30882 0.0836586 -0.064261 -0.0500378
1782 1 0.280538 0.128545 0.0428183 0.151353 -3.31641 0.15651 0.101199 0.0153642
1785 1 0.310014 0.105128 0.0443313 0.0955955 -3.31023 -0.198896 -0.134035 -0.0976379
187 1 0.32648 0.115124 0.0168292 5.52498 -3.32206 0.0151242 0.0190961 -0.0449039
1786 1 0.323333 0.136081 0.0399158 2.75883 -3.32692 -0.0357416 0.125322 -0.0089403
1789 1 0.351588 0.111937 0.0414007 5.57367 -3.29209 0.0183055 0.25263 -0.225859
192 1 0.353634 0.14022 0.0201492 5.43505 -3.23005 0.0936196 0.0156139 0.116091
191 1 0.381293 0.116102 0.019208 6.27419 -3.33811 -0.0491492 0.0565809 0.0405072
1790 1 0.377383 0.13788 0.0436089 5.46314 -3.26133 -0.0234119 0.100227 0.0741704
195 1 0.423817 0.112573 0.0155989 0.219552 -3.30879 0.0284214 -0.330009 0.0241033
196 1 0.409942 0.141109 0.0247645 6.99753 -3.34358 -0.066943 0.128907 -0.0343772
200 1 0.453884 0.135282 0.02212 0.569817 -3.29722 0.0393056 0.0566364 -0.138988
1797 1 0.451587 0.111216 0.0408478 0.762534 -3.26865 -0.174474 0.0160317 0.213057
1793 1 0.408046 0.115709 0.0439848 7.03458 -3.29865 -0.0972087 0.108103 0.0616246
199 1 0.467739 0.10756 0.0134597 0.785649 -3.32072 0.1007 0.101923 -0.186138
1801 1 0.494569 0.104384 0.0435598 6.68341 -3.26705 0.199624 0.0940509 0.00194092
1802 1 0.500231 0.129182 0.025023 8.46108 -3.29846 -0.0129965 0.207193 -0.0352415
203 1 0.510419 0.104193 0.0100129 6.59355 -3.32239 -0.0891683 -0.27654 -0.218444
1798 1 0.479314 0.133239 0.0493375 0.690721 -3.28477 -0.225335 0.328156 0.137885
1805 1 0.534701 0.104495 0.0331642 1.00768 -3.30817 0.0483389 0.33351 0.233978
208 1 0.539252 0.130713 0.0132859 0.751203 -3.32859 -0.197802 -0.0687767 -0.0223891
1806 1 0.564877 0.130394 0.0374124 0.384182 -3.33528 -0.216427 0.315467 -0.0349123
207 1 0.570901 0.10793 0.0163225 0.0863482 -3.31518 0.0760903 -0.034677 -0.013113
1809 1 0.595872 0.109361 0.0399755 0.328688 -3.35293 0.200868 -0.297352 0.260744
211 1 0.606356 0.109796 0.999056 0.106034 -3.35064 -0.0349535 -0.28565 0.0482112
1810 1 0.601173 0.132987 0.0197644 0.176924 -3.34794 -0.109993 -0.130126 0.0842625
216 1 0.635517 0.133125 0.0020762 0.0950763 -3.3227 0.132621 0.150682 0.141968
1813 1 0.632942 0.11005 0.0237173 6.59223 -3.33402 -0.0121566 -0.121822 -0.0127212
1897 1 0.662479 0.133228 0.0262094 0.311735 -3.3369 -0.082669 0.254762 0.172159
220 1 0.66746 0.110125 0.00551553 7.10921 -3.28701 0.0423569 0.2144 0.0838078
224 1 0.727605 0.11267 0.0127999 0.172031 -3.33614 0.0200801 -0.102118 -0.0518776
1818 1 0.692206 0.110781 0.0295856 7.18906 -3.30685 0.0187962 0.074066 0.214129
1901 1 0.721089 0.135168 0.034062 0.394136 -3.35565 0.285654 -0.0470044 -0.118645
299 1 0.696676 0.135821 0.00851474 0.391241 -3.33618 0.0543254 -0.29198 0.113812
228 1 0.787834 0.112271 0.020055 0.0649848 -3.34449 0.0418505 0.0824576 -0.174173
1822 1 0.75281 0.112244 0.0372698 0.0827982 -3.36076 0.060983 -0.0858965 0.045454
303 1 0.757588 0.136107 0.0167576 0.23542 -3.33747 -0.0183177 -0.197496 -0.25836
1905 1 0.783408 0.136169 0.0402358 0.127907 -3.35141 -0.0855475 -0.0365233 0.217748
232 1 0.848951 0.113684 0.025509 0.230193 -3.35611 -0.0752313 -0.162917 0.206779
307 1 0.817644 0.136475 0.0228306 0.0937395 -3.33618 0.0242336 -0.13566 -0.208639
309 1 0.853024 0.136758 0.00444208 0.059717 -3.35083 -0.0145186 -0.0463528 0.013792
226 1 0.823327 0.112591 0.0017154 0.0719898 -3.36864 -0.0927964 0.0679878 -0.142933
1826 1 0.813183 0.112695 0.0440918 0.0660567 -3.34421 0.0714525 -0.116954 -0.0171276
236 1 0.908439 0.11375 0.0326013 0.0924125 -3.34844 0.142595 -0.0878366 0.0563837
230 1 0.88303 0.112795 0.0074808 0.174672 -3.33421 0.11375 0.248506 0.174157
311 1 0.879156 0.136763 0.029448 0.151301 -3.34513 -0.220102 -0.0867412 0.000523825
313 1 0.913427 0.137213 0.0113144 0.0702539 -3.35797 -0.0677546 -0.227262 -0.0385064
319 1 0.999405 0.13775 0.0420756 0.140096 -3.35296 -0.142689 0.0339335 0.205456
234 1 0.943828 0.113963 0.0144809 0.0766996 -3.35088 0.0710299 -0.000307864 0.0560977
240 1 0.969864 0.113968 0.0391009 0.0374512 -3.35497 -0.042309 -0.00784557 -0.020035
315 1 0.938982 0.136808 0.0364763 0.0504547 -3.34855 -0.0373119 -0.0276197 0.0565574
317 1 0.973196 0.137449 0.0174745 0.22274 -3.34972 0.257587 0.068342 0.221968
321 1 0.0318745 0.185928 0.0255672 0.134874 -3.32114 0.0312165 -0.219735 0.17129
318 1 0.00323517 0.16108 0.0210762 0.132932 -3.36269 -0.0252032 0.0656503 0.177255
30644 1 0.0385004 0.163074 0.00351673 0.154191 -3.3216 0.0208534 -0.2637 0.0576071
244 1 0.0273905 0.16126 0.0465518 0.0936118 -3.36989 0.136209 -0.0352642 -0.0984369
242 1 0.0630442 0.162034 0.0287576 0.0822395 -3.34991 -0.0981314 -0.0809373 -0.00774012
246 1 0.122268 0.163778 0.0349233 0.229166 -3.32486 0.054943 -0.277795 0.110491
325 1 0.091348 0.185714 0.0337626 0.503117 -3.29163 -0.0503544 0.264991 -0.285372
30723 1 0.0665252 0.186659 0.00911356 0.438175 -3.31657 0.130144 0.237229 -0.147643
30648 1 0.0970646 0.163366 0.0107469 0.360266 -3.3369 -0.0194001 -0.051258 0.0319343
30727 1 0.123731 0.189642 0.0134758 6.08082 -3.33898 0.00504065 0.110129 0.402353
256 1 0.180923 0.166027 0.0414545 6.84939 -3.32704 -0.144036 -0.0624315 0.0575603
250 1 0.154492 0.166982 0.0163323 6.48104 -3.32941 0.051425 -0.00610947 0.143838
329 1 0.150461 0.188391 0.0387639 7.57401 -3.3735 -0.10635 -0.0069236 0.0314747
260 1 0.195883 0.176273 0.0139338 0.0846969 -3.31966 0.139498 -0.0322581 0.0166725
259 1 0.22683 0.154536 0.0165919 0.200053 -3.32869 -0.181788 -0.149271 -0.125323
264 1 0.238609 0.185864 0.0119342 6.43999 -3.32 -0.0776645 0.00937989 0.0168172
1858 1 0.221806 0.174489 0.0383507 0.186232 -3.30298 0.24272 0.0939145 0.116937
1861 1 0.25335 0.152285 0.0412606 0.316642 -3.30911 -0.344816 0.0624791 -0.198193
1862 1 0.264074 0.183085 0.0357298 1.70236 -3.28981 0.055172 -0.117264 0.0139167
263 1 0.269165 0.162217 0.0135488 5.99474 -3.29165 -0.0520224 0.177343 0.133235
268 1 0.304966 0.188908 0.0290775 6.75972 -3.26506 0.0305564 0.0459865 0.0134675
1865 1 0.294606 0.160058 0.0374624 0.634189 -3.29337 0.0709081 -0.100002 -0.0243944
267 1 0.335819 0.167055 0.0317641 8.27126 -3.32442 -0.048353 -0.136731 0.00273686
272 1 0.358067 0.19379 0.0314709 7.09127 -3.29397 -0.00666851 0.151518 0.277792
271 1 0.379018 0.166009 0.0280973 6.46189 -3.27746 0.0764029 -0.16581 -0.107079
270 1 0.387236 0.191729 0.00835817 0.191752 -3.25883 -0.0747411 -0.0137604 -0.152151
269 1 0.357903 0.167625 0.00347363 0.549748 -3.26123 0.0154759 -0.175994 0.210604
266 1 0.335117 0.19356 0.00673443 2.56569 -3.2597 -0.188049 0.0343087 -0.158208
273 1 0.410607 0.165379 0.00514842 5.61607 -3.36218 -0.036889 -0.0972269 0.0595836
276 1 0.408933 0.188791 0.0319976 5.5969 -3.24146 -0.0327021 0.0170817 0.0449495
275 1 0.439 0.164371 0.03059 6.8691 -3.33671 -0.233869 0.0521067 0.0257919
280 1 0.438383 0.189196 0.0103593 5.0591 -3.30906 0.0862289 -0.110453 0.0585818
279 1 0.454631 0.158783 0.00232083 1.01774 -3.29018 -0.0275572 0.305827 -0.016998
284 1 0.481612 0.18189 0.0096314 3.46065 -3.27933 -0.152751 0.105392 -0.399702
1881 1 0.480679 0.158427 0.0291318 1.21745 -3.22682 -0.252618 -0.512746 0.235862
1878 1 0.465658 0.187899 0.0365237 6.47643 -3.32948 0.0207336 0.128004 0.24595
1882 1 0.507921 0.179969 0.0333459 6.88869 -3.25814 0.224073 0.579394 0.246679
1885 1 0.530576 0.154059 0.0323047 6.09121 -3.33023 0.324845 -0.164485 -0.0388815
1886 1 0.538396 0.178748 0.0128654 0.661081 -3.31269 0.136822 0.0764665 0.161697
1889 1 0.569213 0.154699 0.0164849 0.237027 -3.34445 -0.14666 0.172562 0.155742
1892 1 0.563711 0.178214 0.0374527 6.59817 -3.30199 -0.151516 0.11157 -0.0987297
291 1 0.603899 0.1567 0.998801 0.188324 -3.35477 0.173784 -0.141577 -0.00424793
1890 1 0.598777 0.180268 0.0193663 6.69889 -3.28197 0.0868642 -0.242976 0.450923
296 1 0.634237 0.180472 0.00259142 0.0722596 -3.29971 0.193133 -0.136251 0.0365686
1893 1 0.63051 0.156127 0.0228583 0.200199 -3.36246 -0.024124 0.192538 0.14012
1894 1 0.659502 0.181787 0.0263328 0.223204 -3.34701 0.286447 -0.310244 -0.00739801
295 1 0.665561 0.157118 0.00589599 0.150949 -3.35459 0.0347491 0.20336 0.0754538
300 1 0.692411 0.158938 0.0304731 0.314773 -3.33766 -0.218507 -0.108204 -0.144886
304 1 0.726611 0.157747 0.0129285 0.382414 -3.3422 0.182066 0.294704 -0.134541
379 1 0.722513 0.182424 0.0337049 0.176227 -3.35315 0.0630267 -0.041325 -0.279814
377 1 0.69684 0.181222 0.00898553 0.198207 -3.3577 -0.276075 0.0921377 0.117063
308 1 0.787511 0.159365 0.0186565 0.0785997 -3.32623 0.063797 0.0380815 0.0841216
1902 1 0.753392 0.159338 0.0366924 0.174709 -3.36197 -0.186238 -0.0677705 0.117185
383 1 0.757691 0.182823 0.0148496 0.210491 -3.34823 -0.148061 -0.191829 0.0646617
1985 1 0.782017 0.182804 0.0398135 0.0936984 -3.35431 0.170325 -0.00564477 0.123704
1906 1 0.812678 0.159532 0.0441978 0.0738013 -3.36394 -0.0350272 0.0619786 0.0302612
312 1 0.847791 0.158893 0.0259056 0.110289 -3.34591 0.0470863 0.152945 0.0437204
387 1 0.817588 0.182028 0.0225742 0.160829 -3.35895 0.0160757 0.219056 0.00778075
389 1 0.852717 0.182982 0.00455708 0.0358709 -3.3608 -0.0223798 -0.0377701 -0.0551831
306 1 0.82238 0.159838 0.00100779 0.0596199 -3.36348 0.0881083 -0.0647724 -0.0816571
310 1 0.882967 0.159959 0.00798091 0.0418297 -3.35146 -0.129644 -0.00165473 -0.0151917
316 1 0.907908 0.159753 0.0333098 0.04004 -3.34745 -0.0514295 0.0532578 0.153166
391 1 0.876948 0.182824 0.0294974 0.0538152 -3.33814 0.0321052 -0.0548551 -0.00714757
393 1 0.911994 0.183227 0.0126746 0.159777 -3.34384 0.0519941 0.120384 -0.212625
399 1 0.996489 0.184207 0.0432021 0.0848973 -3.34855 0.10928 0.0158673 0.0125705
314 1 0.942423 0.160036 0.0155302 0.11038 -3.343 0.209588 0.17566 -0.118126
320 1 0.968131 0.160462 0.040049 0.0381434 -3.36042 -0.00579157 -0.058883 -0.0571323
395 1 0.937228 0.183083 0.036713 0.128146 -3.3643 -0.0111536 0.172 0.175621
397 1 0.972369 0.184509 0.0190085 0.0902522 -3.35511 -0.0837852 -0.198004 -0.0592104
401 1 0.0302844 0.232231 0.0270388 8.20631 -3.29099 0.233904 -0.0620742 -0.288003
398 1 0.00149174 0.20788 0.0222526 0.100655 -3.33185 -0.183586 0.0987691 0.099579
30724 1 0.03621 0.209662 0.00554565 4.937 -3.29811 0.0234253 0.0108097 -0.0229278
322 1 0.0622478 0.209842 0.0310838 5.47605 -3.28774 -0.058676 -0.280656 -0.223675
326 1 0.11858 0.210862 0.0367064 8.64815 -3.33049 0.125603 -0.12994 -0.233087
405 1 0.0724454 0.240467 0.0255462 13.8285 -3.31804 0.129522 0.179235 -0.179822
409 1 0.105737 0.243162 0.00672835 5.04799 -3.27064 0.0214491 0.0988144 -0.163285
30728 1 0.0942551 0.213302 0.0126506 10.4566 -3.34568 -0.000888582 -0.105031 -0.0827736
335 1 0.16596 0.198647 0.0113759 6.88051 -3.27187 0.0980029 -0.0570624 0.184139
336 1 0.161213 0.219137 0.0329301 6.85973 -3.27753 0.279668 0.110288 0.240674
330 1 0.13824 0.221718 0.0090928 6.08293 -3.27906 -0.160583 0.0787392 -0.115671
411 1 0.131017 0.242314 0.0302748 6.17136 -3.25209 0.114485 0.0203136 0.00595768
1937 1 0.192683 0.196985 0.036631 0.2113 -3.30592 -0.160188 0.21354 -0.227887
339 1 0.207188 0.208244 0.0094299 9.55959 -3.29217 0.158516 -0.0424893 0.193221
340 1 0.203597 0.228286 0.0309935 6.51053 -3.22025 -0.0817931 -0.181253 -0.24668
344 1 0.242265 0.233853 0.0213726 8.57115 -3.26152 0.48548 -0.0598762 -0.243557
1941 1 0.234369 0.205892 0.0337517 2.77881 -3.25841 -0.0694077 -0.164566 -0.0550398
343 1 0.273614 0.211283 0.0239517 7.94857 -3.29942 0.110445 0.13042 -0.0403967
348 1 0.292149 0.24034 0.0226711 8.23281 -3.34457 0.237719 -0.211079 0.231321
1942 1 0.276995 0.233689 0.0504503 1.02216 -3.30762 -0.116729 -0.0615986 -0.175397
1945 1 0.305293 0.210437 0.0538231 0.585992 -3.30779 0.00614083 -0.074203 -0.0534932
347 1 0.3244 0.215866 0.0269593 7.36336 -3.30491 -0.0460482 0.432989 0.139966
346 1 0.329946 0.239749 0.00612341 0.228881 -3.3265 -0.18931 0.0671215 0.0179658
349 1 0.362331 0.217186 0.0107055 1.693 -3.30529 0.0673883 0.189804 -0.180652
352 1 0.353863 0.240322 0.0308217 0.184516 -3.34276 0.227621 -0.00600409 0.0282481
351 1 0.387597 0.217123 0.0363819 5.76357 -3.34513 -0.17089 0.0620863 -0.0340974
356 1 0.39089 0.240855 0.0131112 0.744536 -3.32347 -0.166207 0.143236 0.149044
355 1 0.415386 0.215807 0.0132129 7.034 -3.23296 0.134059 -0.0866393 0.281539
1954 1 0.414382 0.241475 0.0396513 1.9786 -3.318 0.193447 -0.269628 -0.0694837
360 1 0.443743 0.239055 0.0184602 6.6562 -3.27856 0.11583 -0.0489305 -0.00707066
1957 1 0.437293 0.212029 0.0375519 5.6465 -3.29011 -0.0824928 0.303618 -0.0235129
1958 1 0.465425 0.236039 0.0431856 6.00793 -3.28182 -0.103853 0.0626105 -0.228335
359 1 0.468056 0.212562 0.016307 5.62034 -3.33003 0.020558 -0.0733623 0.0491222
1961 1 0.494416 0.211057 0.0435865 6.03615 -3.33558 -0.0439303 -0.123622 -0.0769997
364 1 0.498368 0.234137 0.0241682 5.44572 -3.28909 0.187259 -0.113927 0.0234774
363 1 0.510251 0.204565 0.012828 7.07252 -3.30904 -0.0950174 0.162356 -0.25213
1962 1 0.526347 0.232043 0.0491788 5.15248 -3.28461 -0.11662 0.0594703 0.0965196
368 1 0.53948 0.228999 0.0136143 0.980773 -3.34688 -0.159723 -0.00170422 0.0412439
1965 1 0.536011 0.204038 0.0351645 5.93072 -3.27188 0.0494533 -0.0953407 0.378744
1969 1 0.570148 0.203296 0.018374 6.63975 -3.31271 0.0555158 0.173607 -0.167514
447 1 0.571845 0.25259 0.016242 0.2977 -3.33075 -0.123051 0.0277656 0.00348321
1966 1 0.565259 0.228245 0.0378017 6.26221 -3.29975 0.223527 0.157728 -0.0781507
371 1 0.604762 0.203098 0.999637 0.333624 -3.28783 -0.128141 0.520219 -0.0899768
1970 1 0.599786 0.22864 0.0198705 7.28333 -3.28993 -0.135838 -0.179013 -0.231561
376 1 0.635134 0.229242 0.00171551 0.280464 -3.34984 0.0167874 -0.232429 0.0232397
1973 1 0.628206 0.204437 0.0234642 6.8852 -3.28662 -0.158855 0.0899643 0.017768
455 1 0.660134 0.228566 0.0252653 0.15964 -3.32517 0.181023 0.137172 0.0350658
2053 1 0.62448 0.228708 0.0422214 6.62778 -3.26597 0.105151 0.0183782 0.44941
375 1 0.664292 0.20433 0.0058051 0.283294 -3.35499 0.252456 0.217967 -0.0981249
380 1 0.690677 0.20562 0.0290206 0.145656 -3.34884 0.210556 -0.036653 -0.0751895
378 1 0.727475 0.204838 0.0117566 0.28997 -3.32946 -0.173827 0.21137 0.0745685
459 1 0.72211 0.229597 0.0318589 0.163436 -3.32557 -0.072461 -0.0441518 -0.00816748
457 1 0.6973 0.228595 0.00849357 5.97264 -3.30254 -0.435472 -0.0885315 -0.242603
384 1 0.751953 0.206414 0.0356886 0.0740642 -3.33916 0.0234828 -0.0846619 0.15541
388 1 0.78694 0.205706 0.018801 0.163149 -3.35854 0.0952926 0.223069 -0.17015
463 1 0.781876 0.229572 0.038792 0.122082 -3.34436 -0.102304 0.124753 0.0387823
461 1 0.756001 0.230466 0.0143387 0.223672 -3.33109 -0.021637 -0.275143 0.092398
392 1 0.847407 0.206354 0.0252847 0.0752572 -3.36229 -0.0189593 0.0551208 0.144729
467 1 0.817298 0.23014 0.0216383 0.0739544 -3.35621 -0.13128 -0.0709658 -0.0269937
1986 1 0.812656 0.206648 0.043227 0.0399106 -3.36573 0.0350483 -0.0877776 -0.0142999
469 1 0.851884 0.230108 0.00426751 0.0668933 -3.35455 -0.0106388 0.0536794 -0.0102739
2069 1 0.842498 0.230816 0.0462384 0.108912 -3.36095 -0.17223 -0.0595407 0.0591279
390 1 0.882536 0.206867 0.00788275 0.112432 -3.339 -0.191192 -0.0396051 0.144572
396 1 0.905701 0.20645 0.0335812 0.180958 -3.342 0.268465 0.11258 -0.125323
471 1 0.877321 0.230572 0.0295525 0.212846 -3.34896 -0.20682 -0.0152756 -0.12318
473 1 0.910703 0.230337 0.0119078 0.0946013 -3.35764 0.104856 0.135784 -0.0821944
394 1 0.941213 0.207484 0.0159686 0.121877 -3.33686 -0.173779 -0.205313 -0.0215167
400 1 0.965668 0.207646 0.0404394 0.0584641 -3.35089 0.0483104 -0.0833326 -0.0942691
475 1 0.934982 0.230865 0.0371637 0.138737 -3.35544 -0.0538714 0.0650388 -0.309104
479 1 0.995094 0.231085 0.0436066 0.0665727 -3.3566 -0.0834065 -0.115893 0.0738672
477 1 0.970147 0.230125 0.0183756 0.197666 -3.33537 0.041973 0.147571 0.22977
402 1 0.0416705 0.265162 0.0218774 9.77606 -3.34166 -0.0239205 -0.294256 0.0358564
481 1 0.0121893 0.288604 0.0184041 10.1794 -3.31891 -0.133163 -0.0178488 -0.00962778
478 1 -0.000114716 0.253882 0.022354 6.721 -3.30074 0.120351 0.146196 0.133781
412 1 0.100769 0.264907 0.0273824 5.38968 -3.26655 0.0734878 0.137295 0.0766505
406 1 0.0761572 0.265586 0.00328571 7.61045 -3.30342 -0.120144 -0.0187372 0.0591319
487 1 0.0710438 0.28809 0.0242582 5.003 -3.28127 0.203543 0.138781 -0.0801563
491 1 0.113475 0.297037 0.0205641 1.28845 -3.28601 0.203967 -0.364618 0.266843
410 1 0.117842 0.27527 0.000861308 5.86753 -3.27305 -0.0249042 0.133862 0.12902
415 1 0.174017 0.248865 0.0244063 5.31618 -3.28582 0.1458 -0.0169474 0.19263
416 1 0.143049 0.272869 0.025111 2.44487 -3.26523 0.0685983 0.30034 -0.0737928
413 1 0.148089 0.25354 0.00350434 7.2852 -3.17535 -0.44424 -0.24877 -0.122156
420 1 0.184862 0.279396 0.0186789 1.96943 -3.29229 0.162624 -0.0130626 -0.246721
419 1 0.216401 0.2576 0.0217566 1.72656 -3.26894 -0.173167 0.0731542 -0.099728
2021 1 0.246885 0.25566 0.0463123 1.1965 -3.3323 -0.243633 0.17148 0.237355
424 1 0.234395 0.286186 0.0161916 6.95571 -3.30701 -0.247402 0.210141 0.235215
2018 1 0.216508 0.280399 0.0432764 0.567646 -3.33776 -0.139109 -0.213733 0.151443
2022 1 0.259094 0.287164 0.0418532 7.51799 -3.34037 -0.0779096 -0.0306518 0.00473174
423 1 0.262863 0.263296 0.0209035 5.78467 -3.29409 0.114921 -0.0495191 -0.31431