ITEM: TIMESTEP
11250
ITEM: NUMBER OF ATOMS
32000
ITEM: BOX BOUNDS pp pp pp
4.5529502028962066e+00 7.6447049797098643e+01
-1.8919227375839469e+00 8.2891922737578412e+01
-1.8902973321405554e+00 8.2890297332136043e+01
ITEM: ATOMS id type xs ys zs c_csym c_peratom fx fy fz
8 1 0.0498669 0.0245457 0.0251204 0.0235478 -3.31024 0.0822649 0.0387335 -0.0122237
1602 1 0.0247214 0.024671 0.04979 0.0382053 -3.3121 0.0695068 0.0579995 0.0569262
83 1 0.0253245 0.0495829 0.0248561 0.0249923 -3.30935 -0.0834845 0.0633335 -0.0126788
1685 1 0.0499632 0.0497684 0.0499313 0.0159159 -3.30994 0.0178741 -0.0567184 -0.011328
12 1 0.100046 0.0249496 0.0249518 0.0123081 -3.30304 0.0567823 -0.040161 0.000355777
6 1 0.0752652 0.0248065 8.05241e-05 0.0236445 -3.30452 -0.0860364 -0.0168053 -0.018398
87 1 0.0749459 0.0496228 0.025042 0.0178469 -3.30435 -0.0604542 0.0673947 -0.011785
1609 1 0.100436 -0.000441175 0.0500077 0.0586227 -3.30138 -0.073939 0.143307 -0.0497615
16 1 0.149891 0.0249844 0.0251772 0.0278031 -3.31493 -0.0366968 0.060631 -0.0923817
15 1 0.175242 0.000340198 0.025142 0.044556 -3.30222 -0.0998952 -0.0983273 -0.127171
11 1 0.125369 -0.00025898 0.0247243 0.0478538 -3.30999 -0.157796 0.0551251 0.0226109
91 1 0.124905 0.0505537 0.0245726 0.0559497 -3.31737 0.0141152 -0.135719 0.0480985
95 1 0.174763 0.0500992 0.0251178 0.0145024 -3.31353 0.00387744 -0.0257894 -0.0814414
1614 1 0.174745 0.0248154 0.0501394 0.0187835 -3.30561 0.0257841 0.0726974 -0.0774897
1693 1 0.14973 0.0502096 0.0499596 0.0115325 -3.31353 0.00509446 -0.0480831 -0.0452594
1613 1 0.150077 -0.000121589 0.0497703 0.0139905 -3.3037 -0.11247 0.0296807 0.0318278
20 1 0.200029 0.0249671 0.0247644 0.0318274 -3.31014 -0.0149665 0.120362 0.0757183
19 1 0.225078 0.000271495 0.0251006 0.0107466 -3.30403 0.0100153 -0.0128552 0.0323363
1618 1 0.224693 0.0254 0.0500574 0.0240119 -3.32592 0.0554084 -0.0759837 -0.0324022
1617 1 0.199885 -0.00021611 0.0497777 0.0224483 -3.30812 0.0433909 0.0659703 0.0639499
24 1 0.249704 0.025725 0.0249773 0.0422297 -3.31082 0.0739513 -0.103744 0.0613677
23 1 0.274751 0.000430667 0.0249394 0.0155867 -3.31888 0.00226524 0.0256437 0.0209951
22 1 0.274747 0.0253681 -0.000394903 0.0304342 -3.32222 0.0559605 -0.0350977 0.12308
1622 1 0.274906 0.0248838 0.0500086 0.0230309 -3.32472 -0.0057526 0.127502 0.0171667
28 1 0.300032 0.0252343 0.0250913 0.0161454 -3.3136 -0.0714617 0.0483751 -0.0584788
26 1 0.32461 0.0247499 -0.000273517 0.091826 -3.31571 0.146599 0.13597 0.120898
32 1 0.350301 0.024961 0.0253595 0.0445153 -3.31941 -0.00852397 0.0648754 -0.194593
25 1 0.299823 0.000235639 -1.72277e-05 0.00855472 -3.3102 -0.0913586 -0.0270546 -0.00271926
27 1 0.324967 0.00039646 0.0248588 0.0299176 -3.31185 -0.0454498 -0.109591 0.0352549
29 1 0.350154 -6.88882e-05 9.81741e-05 0.0135673 -3.3138 0.0369422 0.0598395 0.0454379
1625 1 0.299922 0.000149958 0.0501726 0.0109609 -3.31388 0.0069067 -0.0438465 -0.0905959
109 1 0.350335 0.0499613 -0.000161202 0.0224003 -3.32121 -0.043687 -0.0546781 0.0940773
36 1 0.399614 0.0248389 0.0253961 0.0684768 -3.30495 0.159261 0.00435743 -0.0808747
111 1 0.375279 0.0501163 0.0247678 0.0358151 -3.30801 0.000588596 -0.0530151 0.0978731
1713 1 0.399791 0.0498804 0.0505477 0.0562098 -3.30608 -0.0290836 0.0402389 -0.0950619
31 1 0.375019 -0.000280214 0.0254108 0.0307691 -3.28924 0.00644841 0.0545284 -0.12755
1630 1 0.375022 0.0248599 0.0501542 0.0276197 -3.30699 -0.0772775 0.0725322 0.0622448
113 1 0.400154 0.0498893 -3.25685e-05 0.0155234 -3.30668 0.0716904 0.0129508 0.00129815
115 1 0.424496 0.0500161 0.0253292 0.0701575 -3.32632 0.137716 -0.0610674 -0.0679867
40 1 0.450509 0.0250744 0.024722 0.0456788 -3.30788 -0.0958344 -0.0426491 0.0939812
117 1 0.450112 0.0499985 -4.56863e-05 0.0116177 -3.31262 -0.0645328 -0.00856682 0.0301047
37 1 0.450693 -0.000555707 -0.000200736 0.0492944 -3.30113 -0.13268 0.0909072 0.0654623
44 1 0.499886 0.0248567 0.0250007 0.0229441 -3.31883 -0.0115044 0.0878777 0.0299122
121 1 0.499963 0.0502504 -5.77377e-05 0.0289309 -3.3173 0.062117 -0.106829 0.0288848
39 1 0.475243 -0.000323295 0.0250817 0.0196576 -3.31515 -0.0136572 0.00336057 -0.03281
1642 1 0.525076 0.0248647 0.0501652 0.0145336 -3.30125 0.00716546 0.0811914 -0.0444912
48 1 0.550056 0.0249348 0.0251831 0.0114242 -3.29588 0.0768857 0.0706254 0.0247844
1646 1 0.574806 0.024986 0.0500766 0.0124844 -3.31144 0.0618033 -0.0375551 -0.078887
46 1 0.574988 0.0251122 0.000185157 0.00938764 -3.30333 -0.0439301 -0.00584935 -0.00700319
52 1 0.599846 0.0248515 0.0251038 0.0122279 -3.30548 -0.0448783 0.0102777 0.00878397
50 1 0.62492 0.0254212 9.08761e-05 0.0338825 -3.31385 0.112222 -0.118187 0.0267472
56 1 0.650061 0.0249194 0.0250075 0.0144568 -3.31474 0.00639511 0.00964661 -0.0111571
60 1 0.699996 0.0250114 0.0248714 0.00931285 -3.30363 -0.0296219 0.0464785 0.108986
135 1 0.674893 0.0502137 0.0249376 0.0185471 -3.30815 0.0590939 -0.0634446 0.0828169
137 1 0.70009 0.0498432 -5.69175e-05 0.00778408 -3.31425 -0.0192985 0.076402 -0.0152916
133 1 0.650367 0.0504602 0.000182845 0.0471369 -3.31309 -0.115461 -0.140664 -0.089208
1654 1 0.674962 0.0247818 0.0501286 0.0177113 -3.314 0.129276 0.0906227 -0.0336597
53 1 0.649839 -0.000389926 -0.00012542 0.0460687 -3.31308 0.0611488 0.142448 0.107734
64 1 0.74965 0.0251213 0.0250705 0.0228661 -3.31344 0.128294 -0.0532959 0.0380292
1658 1 0.724705 0.0248244 0.0500784 0.028096 -3.31474 0.0852816 0.0589035 0.0140547
139 1 0.72515 0.049888 0.0250127 0.00598138 -3.30293 -0.0460198 0.0634515 0.0187328
68 1 0.800111 0.0249605 0.024735 0.0218714 -3.31297 -0.0260649 0.00962009 0.0602183
143 1 0.775154 0.0498996 0.024894 0.0130554 -3.30718 -0.0334079 -0.045154 0.0552826
1662 1 0.77499 0.0246491 0.0502173 0.0181789 -3.31213 0.0138679 0.0991499 -0.104318
62 1 0.774983 0.0252147 -1.45132e-05 0.0253902 -3.31378 0.049269 -0.0255993 0.0351823
72 1 0.850088 0.0245175 0.0247976 0.0235303 -3.3121 -0.0649462 0.126642 0.10278
147 1 0.824774 0.0500028 0.0251679 0.0346171 -3.30936 0.0521572 -0.0545694 -0.0646292
149 1 0.849941 0.0496808 0.000110318 0.0227866 -3.30829 -0.0484474 0.100755 -0.0336155
66 1 0.82514 0.0248087 -0.000192143 0.0203785 -3.31445 -0.0723757 0.0518039 0.0180593
76 1 0.900091 0.024601 0.0245242 0.0406592 -3.30565 -0.0502884 -0.0118868 0.0554753
1753 1 0.900031 0.0498608 0.0498643 0.0123808 -3.30256 -0.0932135 -0.0304402 0.0194193
155 1 0.924513 0.0500534 0.0248378 0.0314014 -3.30005 0.0896793 -0.0971735 -0.0520003
4 1 1.00003 0.0246553 0.0246692 0.0272106 -3.31893 -0.0347811 0.0377255 0.0701247
1681 1 1.0002 0.0500983 0.049747 0.0226173 -3.31281 -0.0363346 -0.0171436 -0.0229634
80 1 0.950033 0.0250045 0.025117 0.0199664 -3.31172 -0.0194657 -0.0118081 -0.0560596
1678 1 0.975065 0.0251024 0.0501014 0.0255744 -3.31983 -0.000371333 -0.0442312 -0.0975404
159 1 0.974951 0.0499753 0.0247141 0.0185043 -3.30028 0.0195239 -0.00765854 0.136122
78 1 0.97488 0.0250305 -0.000127465 0.0123463 -3.30466 -0.016452 -0.0813714 0.00348286
88 1 0.0501675 0.0750489 0.0248626 0.0195147 -3.30351 0.0217934 -0.0730318 -0.0324123
84 1 9.61242e-05 0.0748162 0.0249513 0.00894368 -3.32015 -0.0295858 -0.00340682 -0.0111549
165 1 0.0502507 0.10023 -9.50042e-05 0.020205 -3.32254 0.0286332 -0.0963308 0.00402223
1682 1 0.025482 0.0748384 0.0496944 0.0450591 -3.30909 -0.149878 0.0117678 0.0928269
1761 1 0.000244953 0.100112 0.0503566 0.0469396 -3.31348 0.0103633 -0.0575101 -0.125072
92 1 0.099661 0.0752942 0.0250208 0.0277773 -3.30595 0.0311614 -0.0631283 -0.0467842
86 1 0.0750313 0.0750645 5.71683e-05 0.00955882 -3.30456 -0.113776 -0.0191859 -0.0435373
1686 1 0.0749434 0.0746293 0.0499074 0.03802 -3.31872 -0.0507896 0.12515 0.0719309
167 1 0.0749131 0.100142 0.0254581 0.0532753 -3.29504 -0.0271657 -0.0374807 -0.145166
96 1 0.149789 0.0751462 0.0246083 0.0186166 -3.30846 0.0856906 0.0103951 0.0488344
90 1 0.124709 0.0751835 -0.000386997 0.0274311 -3.31163 0.0876037 -0.0601535 0.0618078
1694 1 0.174875 0.0750558 0.0500414 0.00906032 -3.31344 -0.0702515 0.0448271 -0.00222298
1690 1 0.124854 0.0752605 0.049585 0.0246396 -3.30935 0.00774843 -0.0506179 0.0872036
99 1 0.224678 0.0504495 0.0249866 0.0199078 -3.31083 -0.0123449 -0.0629745 0.0712892
100 1 0.199699 0.0749248 0.0248769 0.0142793 -3.30492 -0.00345929 0.0745429 0.034325
1698 1 0.22463 0.0753878 0.0499692 0.0263178 -3.31376 0.0682297 -0.0871885 -0.0314372
1697 1 0.19931 0.0499705 0.0500982 0.0407275 -3.31203 0.11486 0.0294723 -0.0315833
103 1 0.274998 0.0503116 0.0250956 0.011744 -3.30984 0.057754 -0.0822218 0.0155892
104 1 0.250065 0.0750094 0.0253554 0.0356806 -3.30914 -0.0635995 0.103046 -0.0784423
1701 1 0.250016 0.0502535 0.0500484 0.0122913 -3.31552 0.00945827 -0.018654 -0.0186315
101 1 0.249824 0.0504504 5.35823e-05 0.0150996 -3.30463 0.040346 -0.0414199 0.00481882
107 1 0.325417 0.0501539 0.0249659 0.0196543 -3.31339 -0.0644731 -0.0510952 -0.0394081
108 1 0.300033 0.0750102 0.0252294 0.0131568 -3.30233 0.0131013 0.00944283 -0.0415602
112 1 0.350703 0.0749617 0.0251802 0.0414831 -3.2995 -0.0655106 0.0329991 -0.0423812
106 1 0.325357 0.075057 0.000214634 0.00948197 -3.31507 -0.0354945 -0.0203726 0.00904715
1705 1 0.300167 0.0503196 0.0504017 0.0432845 -3.32573 -0.0577617 -0.0690675 -0.103631
105 1 0.300181 0.0500549 0.000126261 0.0126546 -3.31804 -0.00875766 0.00765846 -0.00644808
189 1 0.350172 0.0999877 -1.72629e-06 0.0149396 -3.31076 0.0773787 -0.0245362 0.0171999
191 1 0.375182 0.0999267 0.0251115 0.0144215 -3.30539 0.0386061 0.0365645 0.020273
116 1 0.400082 0.0751276 0.0249155 0.0193817 -3.29513 -0.0508613 -0.0218272 0.0661453
110 1 0.375497 0.0751385 8.98674e-05 0.0248985 -3.3071 -0.0974431 -0.0354146 -0.0895437
193 1 0.399638 0.100229 -0.000237429 0.0517093 -3.31294 0.0975846 -0.0262283 0.036257
120 1 0.450044 0.0750325 0.0250305 0.0140486 -3.31193 0.0122332 -0.029101 -0.00256426
195 1 0.424763 0.100037 0.0250996 0.0220359 -3.29991 0.0150709 -0.0223097 -0.0527336
1797 1 0.449889 0.0996968 0.0499988 0.0102908 -3.31002 0.0556358 0.0157862 0.00611371
123 1 0.525513 0.0499218 0.0252154 0.0227552 -3.31683 -0.0753083 0.0418993 -0.00577932
119 1 0.474683 0.0500461 0.0248956 0.0345396 -3.30352 0.131664 -0.024534 0.0217745
124 1 0.500122 0.0746118 0.0253353 0.0476103 -3.31841 0.0349305 0.0655258 -0.103147
118 1 0.475348 0.0748383 -0.000205933 0.0283684 -3.30835 -0.128307 0.042962 0.0596823
122 1 0.525486 0.0749464 0.000205321 0.0290839 -3.31268 -0.0976813 0.0099793 -0.0358462
199 1 0.475134 0.0998788 0.0250689 0.011463 -3.29949 0.0196636 -0.0635317 0.000436476
1718 1 0.475209 0.0745134 0.0500379 0.0246063 -3.29965 -0.0658434 0.111502 -0.0279792
1722 1 0.525435 0.0751177 0.0499802 0.0245636 -3.31981 -0.0441962 -0.0301442 0.0370655
127 1 0.575116 0.0501482 0.0251098 0.0106891 -3.31205 -0.0189357 -0.0148103 0.100177
128 1 0.550379 0.0755784 0.0251068 0.0386457 -3.30293 -0.0312553 -0.148358 0.0657248
1726 1 0.574825 0.075381 0.050558 0.0694086 -3.32206 0.0434903 -0.103256 -0.136049
1725 1 0.550314 0.0501401 0.0501851 0.0157164 -3.30704 -0.0371525 -0.0160109 -0.048558
1805 1 0.550037 0.100466 0.0503384 0.0357449 -3.30487 0.0480502 -0.0702618 -0.0896687
131 1 0.625009 0.0498812 0.0253323 0.0308001 -3.30113 0.00550149 0.0308668 -0.126029
132 1 0.599892 0.0749464 0.0247806 0.0307142 -3.31879 0.0247914 0.0367955 0.14418
211 1 0.624938 0.100052 0.0251643 0.0108989 -3.30624 -0.0251027 -0.0472917 -0.0405663
130 1 0.6247 0.075033 -8.75322e-05 0.0231675 -3.30775 0.0523638 -0.025658 -0.020276
136 1 0.649663 0.0750865 0.024848 0.0317131 -3.30051 0.0342595 -0.00176665 0.0347194
140 1 0.700238 0.0748096 0.0249351 0.0279467 -3.30431 -0.0518374 0.0250147 0.00145583
213 1 0.649741 0.099943 5.22532e-05 0.0127285 -3.31642 0.102828 0.00453594 0.0136843
1813 1 0.649761 0.100267 0.0503852 0.0459089 -3.30499 -0.0394367 -0.133467 -0.0373499
1817 1 0.699952 0.10017 0.0501738 0.0154618 -3.31137 0.0247234 -0.0184962 0.00998972
134 1 0.674934 0.0750391 0.000131076 0.0110451 -3.30031 0.0759672 0.0383859 -0.00915786
217 1 0.699538 0.100269 0.000315525 0.0317261 -3.30916 0.0471563 -0.0579492 -0.0102154
144 1 0.750172 0.0750927 0.0250246 0.0140262 -3.31919 -0.0379438 0.0114546 -0.0045725
1738 1 0.724971 0.0749583 0.0498317 0.0187042 -3.30469 0.103523 0.0282564 -0.00263782
138 1 0.724995 0.0748858 -0.000157636 0.0203111 -3.30455 -0.00601377 0.0315419 0.11687
148 1 0.799579 0.0749474 0.0247477 0.0403228 -3.30469 0.0926638 0.0306219 0.0715383
1745 1 0.80017 0.0497479 0.0499813 0.00630729 -3.31286 -0.0234592 -0.0163332 0.0355488
223 1 0.775062 0.10016 0.0250584 0.0151981 -3.31557 -0.0666934 0.0184122 -0.0652407
1742 1 0.775046 0.0746356 0.0501406 0.0217736 -3.31533 -0.0250256 0.0532547 -0.00182484
1825 1 0.799547 0.0998473 0.0501705 0.0254586 -3.30549 0.114921 0.033162 -0.00603899
151 1 0.875284 0.0496033 0.0245872 0.0409249 -3.30852 -0.0899211 0.0299419 0.144375
152 1 0.849785 0.0747552 0.0247862 0.0191472 -3.31356 0.087047 0.0372212 0.0878958
150 1 0.874905 0.0751043 0.00012318 0.0245621 -3.30065 -0.134983 -0.0636907 -0.0521069
1829 1 0.8501 0.10014 0.049923 0.0206864 -3.31221 -0.0903701 -0.0865954 0.0223738
231 1 0.874892 0.099924 0.0248307 0.0108651 -3.3174 -0.00116213 -0.0257608 0.0598166
227 1 0.824624 0.0998773 0.0253226 0.0323889 -3.31282 0.0156428 0.00321311 -0.021195
1746 1 0.824927 0.0750134 0.0498998 0.0153407 -3.31882 -0.00925244 -0.00381021 -0.00356342
1750 1 0.874888 0.0746442 0.0500618 0.0267083 -3.31036 -0.00747878 0.104817 -0.124874
156 1 0.89981 0.0746285 0.0248493 0.0157055 -3.30562 -0.00345533 0.117069 0.0594325
1833 1 0.90003 0.099936 0.0498063 0.0118713 -3.31818 -0.0621914 -0.0426123 0.0309295
1754 1 0.924813 0.0748126 0.0500567 0.013678 -3.30075 -0.0271891 0.0776373 -0.0696423
154 1 0.925093 0.0746457 -0.000132927 0.0301934 -3.31253 -0.00105502 0.0395168 0.00466961
233 1 0.899838 0.0996385 -0.000155633 0.0235138 -3.30528 -0.0367949 0.099005 -0.0246456
160 1 0.949758 0.0748702 0.0252461 0.025762 -3.31863 0.033995 0.055676 -0.047546
158 1 0.974578 0.0751924 -6.7849e-05 0.0372264 -3.31824 0.0690445 -0.0440042 -0.0179075
1758 1 0.975086 0.0750046 0.050211 0.0229035 -3.32137 -0.0340325 -0.0378487 -0.0654911
163 1 0.0250104 0.0995383 0.0250436 0.0406512 -3.31034 -0.0524308 0.115687 -0.0595934
1765 1 0.049817 0.0999608 0.0498878 0.0148303 -3.30756 0.0115818 0.0134256 0.0986838
168 1 0.0498879 0.124861 0.0248883 0.0185957 -3.29899 0.0254862 0.0423381 0.00728569
164 1 -2.77132e-05 0.124818 0.0248947 0.0097949 -3.30488 0.0629371 -0.0312167 0.0207605
245 1 0.050238 0.150291 -0.000272817 0.0263555 -3.30245 -0.138602 -0.00159672 0.0109859
172 1 0.0998197 0.124817 0.024921 0.0224437 -3.31638 0.0800079 0.113363 0.0385584
247 1 0.0747648 0.150353 0.0246135 0.0407563 -3.3145 0.105207 -0.0777941 0.0846752
169 1 0.0996599 0.0996686 8.0995e-05 0.0604938 -3.30459 -0.00601 0.160475 -0.0127405
1766 1 0.0747453 0.125019 0.0497595 0.0105842 -3.30531 0.0208389 0.0477974 0.01993
1769 1 0.099992 0.100186 0.0499463 0.0128686 -3.30676 0.00283351 -0.0303158 0.0216635
175 1 0.174979 0.100041 0.0249297 0.00994706 -3.31304 -0.00614904 -0.00260734 0.0811214
171 1 0.125052 0.10004 0.0248869 0.012562 -3.30675 -0.0152064 0.0385294 0.0276935
176 1 0.149974 0.125028 0.0249037 0.00595614 -3.31492 0.0267495 -0.00114783 -0.0215596
1773 1 0.14984 0.100021 0.0503133 0.0309804 -3.31004 0.0799662 -0.0189245 -0.114589
1770 1 0.12527 0.125074 0.0500867 0.0231066 -3.31036 -0.0703074 0.0212896 -0.0655172
180 1 0.199502 0.125435 0.0247205 0.0611119 -3.31612 0.0795253 -0.087517 0.107189
179 1 0.224715 0.100229 0.0248391 0.0189262 -3.32084 -0.00345924 -0.0114445 0.125977
1778 1 0.225115 0.124929 0.0500101 0.0309536 -3.31903 -0.121526 0.0175828 -0.0387984
1777 1 0.199904 0.100002 0.050125 0.0149666 -3.31021 -0.041456 0.108234 -0.0682414
183 1 0.275129 0.100224 0.0249111 0.014866 -3.31067 -0.0186606 -0.0491505 -0.0322569
184 1 0.250163 0.125101 0.0251548 0.0148877 -3.30392 -0.0419083 -0.0479099 -0.0752984
1861 1 0.249863 0.150091 0.0503667 0.0312166 -3.30314 0.0484202 0.0422287 -0.126296
1781 1 0.250334 0.100285 0.0499815 0.021378 -3.30947 -0.137219 -0.0411112 -0.00920587
1782 1 0.274964 0.125163 0.050006 0.0100567 -3.30811 0.0789772 0.0513511 0.0314658
182 1 0.274964 0.125002 -0.000254869 0.0254602 -3.31241 0.0511502 -0.00296382 0.121699
187 1 0.325261 0.0996352 0.02503 0.0360399 -3.30843 -0.0328977 0.0722263 0.0100165
185 1 0.300264 0.0999245 0.00010518 0.00851565 -3.31499 -0.00650355 0.0295408 -0.0211724
188 1 0.300241 0.124905 0.0248041 0.0169706 -3.32832 0.0501373 0.0678075 0.0552607
192 1 0.350192 0.124691 0.0254111 0.0400714 -3.30701 0.0260866 0.102811 -0.0596828
267 1 0.325592 0.150125 0.0251371 0.0329341 -3.31841 -0.0945219 -0.0913636 -0.0509018
1869 1 0.350519 0.150381 0.0502048 0.0499374 -3.31406 -0.0220783 -0.13164 -0.0152745
1865 1 0.300168 0.150229 0.0496809 0.0289789 -3.30851 0.00333689 -0.110102 0.0524559
1786 1 0.325595 0.125098 0.0502247 0.0373196 -3.3159 -0.129025 0.0657007 -0.0252025
196 1 0.40012 0.124982 0.0248025 0.0233807 -3.3078 0.00439433 0.00942041 0.0962453
200 1 0.45021 0.124461 0.0252107 0.0407713 -3.31196 0.00957352 0.115547 -0.0581943
1877 1 0.449929 0.149725 0.0502845 0.0232999 -3.30666 -0.0162819 0.037965 -0.0179498
275 1 0.425676 0.149823 0.0249709 0.0395769 -3.30907 -0.0202577 -0.0359207 -0.0339021
203 1 0.525174 0.100173 0.0249219 0.017972 -3.30874 -0.0812353 -0.00812433 0.0935948
204 1 0.499789 0.12501 0.0252177 0.0307341 -3.32211 0.0598666 0.0331964 -0.0242526
279 1 0.474711 0.149965 0.0252864 0.0278969 -3.31461 -0.0329007 -0.0738676 -0.126477
1798 1 0.474842 0.124826 0.0503991 0.0324004 -3.30484 0.0200584 -0.0344011 -0.0576515
201 1 0.49993 0.0995811 0.00014597 0.0373592 -3.30583 0.111601 0.0705571 -0.0229329
202 1 0.52516 0.12493 0.000147975 0.016897 -3.31491 -0.103225 0.0975949 0.0179702
207 1 0.575091 0.100088 0.0251433 0.00694329 -3.30764 0.0117689 0.0608973 -0.016473
208 1 0.550218 0.125266 0.0252196 0.0137874 -3.30631 0.0669939 -0.0591898 -0.101824
206 1 0.57513 0.1253 -0.000189993 0.0197981 -3.32446 -0.0324987 0.00180836 0.0722415
285 1 0.549994 0.150422 -9.3914e-05 0.0282094 -3.31449 -0.00319273 -0.116922 0.000122298
212 1 0.599875 0.124954 0.0252734 0.0177512 -3.29899 0.00580014 0.0189432 -0.143563
210 1 0.624841 0.124691 0.000200303 0.0217294 -3.31299 -0.00380853 0.0969461 -0.0212281
209 1 0.599936 0.100078 -0.00012563 0.0150238 -3.30229 0.00666546 0.0354666 0.0908299
215 1 0.674956 0.0998186 0.0252415 0.0300593 -3.31687 -0.00922561 0.021304 -0.0246862
216 1 0.650063 0.124716 0.0250942 0.0284105 -3.30622 -4.87308e-05 0.0613623 0.0399987
220 1 0.699596 0.125302 0.0251884 0.0209265 -3.31095 -0.00712985 -0.0712724 0.0575481
214 1 0.674674 0.125356 0.000168232 0.0350084 -3.30391 0.0526728 -0.10177 0.00528314
219 1 0.724546 0.099973 0.0250849 0.0210978 -3.31861 0.117608 0.0505988 -0.00477035
224 1 0.74981 0.125253 0.0246668 0.0439211 -3.31751 0.0657669 -0.119005 0.142053
1821 1 0.749885 0.100253 0.0501225 0.0227136 -3.31678 0.0505018 -0.0464461 -0.136459
1818 1 0.724798 0.125263 0.0502534 0.0176908 -3.31543 -0.0239392 -0.0188667 -0.110806
299 1 0.72483 0.149914 0.0253948 0.0347739 -3.31168 -0.0301791 0.10891 0.00583354
218 1 0.724619 0.125113 0.000407458 0.0259425 -3.30343 0.0696642 -0.0521409 -0.122843
301 1 0.749556 0.150265 6.81655e-05 0.0398988 -3.31612 0.032226 -0.0202671 -0.0359832
228 1 0.799871 0.125133 0.0250996 0.00835873 -3.30631 -0.0222444 -0.0371709 -0.0215936
222 1 0.774846 0.125312 -0.000482151 0.0580658 -3.3131 0.0153208 -0.0825981 0.190493
232 1 0.849395 0.125105 0.0253321 0.0292432 -3.31588 0.0838092 -0.00928293 -0.0758433
230 1 0.874729 0.124952 4.86202e-05 0.00499925 -3.31717 0.0242326 -0.0165443 0.0354958
311 1 0.874873 0.149961 0.0250254 0.00743117 -3.31978 -0.0545892 -0.00726744 -0.047365
1909 1 0.84963 0.150033 0.0502085 0.0118006 -3.3026 0.0169034 -0.0307861 -0.0650673
1830 1 0.874598 0.124849 0.0500104 0.015484 -3.29701 0.0512706 0.0320668 -0.0282073
229 1 0.849791 0.100209 0.000225569 0.0213159 -3.30537 -0.0183698 -0.0355041 -0.00911843
309 1 0.849738 0.150163 -0.00016449 0.030473 -3.31249 0.0675567 -0.0472911 0.123313
235 1 0.924434 0.0998656 0.0247144 0.0375406 -3.31111 0.100234 -0.0521443 0.0849551
236 1 0.899747 0.124819 0.0250525 0.00841765 -3.30702 -0.00503154 0.0486554 -0.021362
1834 1 0.924955 0.124817 0.0498901 0.00727966 -3.30916 -0.0264595 0.0548111 -0.0136806
234 1 0.924796 0.124777 0.000132951 0.0109675 -3.30678 -0.00720679 0.0185109 -0.0804101
315 1 0.924938 0.149828 0.0247772 0.0122205 -3.32131 -0.0660506 0.0401235 0.0651159
237 1 0.949817 0.0998709 6.84529e-05 0.0135527 -3.30895 0.0801078 0.0253099 0.00816445
239 1 0.975068 0.0998745 0.0252043 0.0144359 -3.32154 0.0141463 -0.0222555 -0.0506663
240 1 0.949746 0.124795 0.0248273 0.011068 -3.31618 0.090334 4.72667e-06 0.0471403
319 1 0.975407 0.149945 0.0249457 0.0222453 -3.30787 -0.104735 -0.0231947 0.030924
243 1 0.0249978 0.149926 0.0244798 0.0290794 -3.31922 -0.0154986 0.0633795 0.045556
248 1 0.05017 0.17495 0.0246727 0.0242399 -3.31972 -0.0734931 0.0971521 0.0492468
242 1 0.0246948 0.175152 -0.000294459 0.0174342 -3.31172 0.0175791 -0.0569108 0.100198
252 1 0.100231 0.17507 0.0251515 0.0305688 -3.31726 -0.106311 -0.0317254 -0.0550672
327 1 0.0753106 0.200255 0.0248615 0.0265489 -3.30666 -0.0724058 -0.100724 -0.0241443
246 1 0.0751442 0.175679 -0.000174855 0.0580652 -3.31018 0.0522759 -0.13786 0.0554832
1846 1 0.0750247 0.175111 0.0502571 0.0416916 -3.30858 -0.0161216 -0.0583898 -0.100024
1929 1 0.099761 0.199918 0.0498504 0.0183909 -3.29118 0.0554417 -0.00321197 0.0249344
255 1 0.174874 0.150316 0.0248634 0.0170296 -3.29037 0.0216663 -0.126404 -0.0586967
251 1 0.125253 0.150119 0.0245544 0.0358011 -3.30279 -0.0966946 -0.0466596 0.116973
256 1 0.150414 0.174926 0.0248473 0.0350465 -3.31503 -0.129788 0.135562 0.0050146
254 1 0.17512 0.174807 -0.000434039 0.0405384 -3.31004 -0.00743376 0.0701064 0.0214087
250 1 0.124833 0.17507 -0.000109152 0.015152 -3.31723 0.0463168 0.075335 -0.00309191
335 1 0.175122 0.199993 0.0247063 0.0145129 -3.30169 -0.075582 -0.0162 0.0844107
1850 1 0.124955 0.174926 0.0499838 0.0123472 -3.30984 0.000613309 -0.0304504 0.00157339
1854 1 0.175219 0.174994 0.0500325 0.0278797 -3.30046 -0.135526 0.0477353 -0.00987032
259 1 0.225055 0.149851 0.0253089 0.032708 -3.314 -0.0376288 0.0540339 -0.0741839
260 1 0.199752 0.174929 0.0249579 0.0131285 -3.30564 0.0725165 0.0259805 -0.0239346
1857 1 0.199885 0.150217 0.0499015 0.0141387 -3.3068 0.00611731 -0.094278 0.0336646
257 1 0.200008 0.150181 -0.000300537 0.0188607 -3.31832 0.00719114 -0.0673927 0.0428857
263 1 0.274987 0.149744 0.0251238 0.022214 -3.32313 -0.00921089 0.0844584 -0.0852275
264 1 0.249788 0.174844 0.0251858 0.0126652 -3.31398 -0.0182724 0.00888186 -0.0287817
343 1 0.274521 0.200033 0.0246851 0.0318506 -3.30713 0.0551526 -0.0293326 -0.0642512
1862 1 0.274971 0.175113 0.0497524 0.0136763 -3.30424 -0.000781575 -0.0338484 0.0542011
268 1 0.299938 0.175064 0.0250072 0.0147589 -3.30738 -0.0257139 -0.0329674 -0.12919
272 1 0.350306 0.174886 0.0245389 0.0502102 -3.30802 -0.00954015 0.0799055 0.0802115
1866 1 0.324954 0.17505 0.0494241 0.0437725 -3.30921 0.0559096 0.0269597 0.168266
266 1 0.324751 0.174838 -0.000354477 0.038176 -3.30975 0.122209 0.0743798 0.105449
1945 1 0.299595 0.199937 0.0494815 0.0484428 -3.31479 0.0909226 0.0307023 0.112624
273 1 0.400419 0.150102 -2.59198e-05 0.0160512 -3.32703 0.0500811 0.0190393 -0.0226505
271 1 0.37542 0.150013 0.0251912 0.0194795 -3.31064 -0.057632 -0.0257801 -0.0320938
1873 1 0.400398 0.149859 0.0499453 0.0123533 -3.30972 -0.061009 -0.0378438 0.0137866
276 1 0.400818 0.174666 0.0251108 0.0754346 -3.31011 -0.140592 0.114777 -0.0987676
1870 1 0.375295 0.17487 0.049904 0.0174037 -3.307 0.0628682 0.0520877 -0.0225459
1953 1 0.399758 0.200182 0.0500558 0.0466681 -3.31143 0.107131 -0.0481797 -0.0135406
351 1 0.37511 0.200272 0.0252712 0.0474278 -3.31823 -0.0366058 -0.162509 -0.110352
280 1 0.450054 0.175073 0.0249796 0.0104671 -3.30284 -0.00175429 -0.0140313 0.00390307
274 1 0.425497 0.175661 -0.000238911 0.0940905 -3.30301 -0.107866 -0.213862 0.0229784
357 1 0.450006 0.200287 -0.000384216 0.0374116 -3.30216 0.0723331 0.0080374 0.104965
1957 1 0.450385 0.19991 0.0499198 0.0200128 -3.30712 -0.0606332 -0.0566487 0.0587075
1881 1 0.499872 0.14975 0.0499585 0.0204769 -3.31081 0.0943006 0.0204387 0.00743832
283 1 0.525408 0.150105 0.0252899 0.0304558 -3.3147 -0.117306 0.00410422 -0.101185
284 1 0.499565 0.174879 0.0250931 0.03528 -3.30259 0.106702 0.010299 -0.0493109
1878 1 0.474992 0.174623 0.0499772 0.0201793 -3.29812 -0.0141985 0.0724095 0.0422849
1882 1 0.524785 0.175114 0.0497062 0.0392064 -3.31429 0.0410458 -0.0527057 0.00778766
287 1 0.575124 0.150079 0.0249606 0.00859108 -3.30909 0.0842705 0.0118135 -0.0339474
288 1 0.550556 0.175028 0.0251496 0.0308775 -3.30975 -0.0802052 0.0456868 -0.0350489
286 1 0.575454 0.174926 7.47598e-05 0.0296881 -3.30481 -0.0393191 0.0498068 -0.0407384
291 1 0.62515 0.149555 0.0252292 0.0388933 -3.31243 -0.023687 0.07033 -0.0016807
292 1 0.600577 0.175122 0.0248054 0.0433408 -3.32017 -0.057517 -0.0729539 0.0825072
289 1 0.600215 0.150164 1.13035e-05 0.013283 -3.30952 -0.0380113 -0.0937191 0.0136578
290 1 0.625183 0.174793 -0.000246972 0.0406689 -3.29251 -0.0209138 0.0697667 0.0985458
295 1 0.674711 0.150122 0.0254995 0.0218227 -3.31178 -0.0464321 -0.0249015 -0.0912083
296 1 0.649574 0.174838 0.0253179 0.0152207 -3.31585 -0.0499914 0.0437323 -0.0317633
293 1 0.649727 0.1499 0.000155723 0.014942 -3.29716 0.0269928 -0.0105086 0.0594637
300 1 0.699703 0.175109 0.0249532 0.0192909 -3.31252 0.0480008 -0.0566562 0.0979998
294 1 0.674856 0.174749 0.000288493 0.0172628 -3.31279 -0.0169783 0.0302428 -0.0458952
297 1 0.700042 0.149864 0.000185899 0.020258 -3.31062 -0.026552 0.0887833 -0.00207349
304 1 0.74983 0.175079 0.0250325 0.0125407 -3.32164 0.0368746 -0.0270926 0.0397286
379 1 0.724794 0.200103 0.0250312 0.0144526 -3.30304 0.078539 -0.0889916 0.070521
298 1 0.724838 0.175203 0.000104751 0.0145847 -3.31525 0.0964406 -0.045019 -0.0695765
381 1 0.750379 0.200267 0.000372873 0.0385918 -3.32472 -0.0162928 -0.0972935 -0.1122
305 1 0.800159 0.14998 5.99293e-05 0.021309 -3.29594 -0.064697 -0.0281834 0.0128576
303 1 0.774877 0.149867 0.0250578 0.0202767 -3.31624 -0.0241061 0.0586727 0.0437948
308 1 0.799582 0.17492 0.025517 0.0304888 -3.31451 0.119016 0.0451205 0.023905
302 1 0.77529 0.174767 0.000336604 0.0377299 -3.31189 -0.120901 0.0619371 -0.0843201
383 1 0.775095 0.200014 0.0252432 0.0113125 -3.30345 0.018087 0.0286809 0.0715898
307 1 0.824566 0.150181 0.0253308 0.0209211 -3.30808 0.0765037 -0.00560586 -0.0215306
312 1 0.849953 0.174938 0.0250391 0.0118334 -3.31527 -0.0328102 0.020795 -0.0114324
391 1 0.874727 0.19998 0.0246405 0.0368932 -3.30915 0.00425867 0.0226461 0.105511
389 1 0.849702 0.200111 -4.17689e-05 0.0137243 -3.31808 0.00442949 -0.0675141 0.00181028
1906 1 0.82521 0.174886 0.0505947 0.044593 -3.30182 -0.113906 0.0694629 -0.175262
1910 1 0.874774 0.175023 0.0498819 0.0105379 -3.31559 0.0436897 0.0129742 -0.010055
310 1 0.875233 0.174938 -8.7238e-05 0.0200253 -3.3101 -0.116745 -0.00965957 -0.013624
313 1 0.899688 0.149576 -5.01152e-05 0.0338883 -3.31321 0.0710733 0.095106 -0.00816992
316 1 0.900001 0.175172 0.0247819 0.0360703 -3.31927 0.0348995 -0.0823845 0.0892918
314 1 0.925311 0.174815 1.56166e-05 0.0147577 -3.31718 -0.069105 -0.0403785 0.00292789
395 1 0.925494 0.200051 0.0253243 0.0475342 -3.30554 -0.0595532 -0.0552805 -0.0133147
1913 1 0.899405 0.149644 0.0498023 0.0425332 -3.31488 0.1338 0.0491426 0.00573071
1914 1 0.924735 0.174619 0.0501349 0.0401527 -3.31615 0.0115952 0.0584209 -0.146061
393 1 0.900281 0.19957 0.00032947 0.0439455 -3.3056 -0.0307798 0.0831948 -0.0930646
244 1 0.999886 0.175252 0.0246584 0.0258086 -3.3064 0.0661351 -0.0711292 0.0402051
320 1 0.950198 0.174736 0.0250586 0.0111298 -3.32209 -0.0152388 0.0256146 0.0131998
318 1 0.975179 0.174741 -0.000107049 0.0199215 -3.30377 -0.0303089 0.0721822 0.0250573
1917 1 0.949996 0.149855 0.0497122 0.0103738 -3.31477 0.010244 0.0179356 -0.00432888
397 1 0.950231 0.200077 0.000402652 0.029247 -3.30681 0.0429683 -0.0893602 -0.0835282
323 1 0.0250124 0.199997 0.025113 0.0268202 -3.3127 -0.0694681 0.000416133 -0.111011
328 1 0.0501662 0.22475 0.0243582 0.0770533 -3.30831 -0.0766272 0.0699025 0.128509
322 1 0.0248077 0.22474 -0.000327525 0.0345925 -3.31436 -0.0416974 0.104717 0.097499
403 1 0.0247444 0.249623 0.0252603 0.0520052 -3.30108 0.0607156 0.0424128 -0.0690745
321 1 -0.000424404 0.200038 -0.000160815 0.0290308 -3.30861 0.0776968 -0.01527 0.0714025
332 1 0.0997947 0.225366 0.0249417 0.0415972 -3.30458 -0.0411583 -0.078038 -0.0205977
407 1 0.0746312 0.249957 0.0251011 0.0197262 -3.30528 0.00649271 -0.0367833 -0.0643199
2009 1 0.0998387 0.250006 0.0498488 0.0158928 -3.31552 0.0124426 -0.10056 0.0843993
331 1 0.124775 0.200133 0.0248943 0.013656 -3.31072 0.0554169 -0.0522338 -0.0325428
1933 1 0.149481 0.199892 0.0498185 0.0253346 -3.31533 0.110595 -0.0157021 0.0180987
336 1 0.150046 0.224954 0.0246921 0.0132145 -3.30491 0.0185381 -0.0253819 0.0343057
415 1 0.175011 0.249901 0.0251887 0.0350232 -3.30921 -0.00678197 0.0360692 -0.0997982
411 1 0.125044 0.249639 0.0249732 0.0169961 -3.30098 0.0160709 0.0925766 -0.0197937
1930 1 0.124653 0.224612 0.0498901 0.0410335 -3.31448 0.0300428 0.125423 0.0244718
2013 1 0.149717 0.249716 0.0499139 0.0165316 -3.31551 0.00652904 0.0652544 0.0122848
339 1 0.22475 0.200133 0.0248718 0.0102424 -3.31115 0.00135383 -0.042801 0.0228567
340 1 0.199583 0.22495 0.0247303 0.0222843 -3.30835 0.0822502 0.0427926 0.0309302
2017 1 0.199785 0.249538 0.0502348 0.071815 -3.30758 0.0745596 0.0457544 -0.0369088
1941 1 0.249911 0.200069 0.049826 0.0069071 -3.30387 0.0128346 -0.0452717 0.00882583
344 1 0.25001 0.224878 0.024658 0.0161334 -3.3136 0.00184909 0.105708 -0.00429403
423 1 0.27537 0.250151 0.0246892 0.0327636 -3.30917 -0.113031 -0.0691735 0.130698
1942 1 0.274849 0.224925 0.0496933 0.0147613 -3.31326 0.0137085 0.0760291 0.0354354
347 1 0.325377 0.199832 0.0250595 0.0502857 -3.31951 -0.0311428 0.0604168 -0.10357