ITEM: TIMESTEP
17250
ITEM: NUMBER OF ATOMS
32000
ITEM: BOX BOUNDS pp pp pp
6.9831732877706552e+00 7.4016826712224187e+01
-2.4547315104559431e+00 8.3454731510450102e+01
-5.9644549582669342e+00 8.6964454958263403e+01
ITEM: ATOMS id type xs ys zs c_csym c_peratom fx fy fz
2 1 0.0379957 0.0224304 0.00542227 0.0863733 -3.36854 0.0602968 -0.116946 -0.0730185
78 1 0.00458829 0.0220205 0.0238872 0.0973414 -3.33332 0.198647 -0.0779708 -0.0110903
81 1 0.034479 0.0470728 0.0266945 0.212657 -3.33983 0.0312731 -0.105601 -0.164298
159 1 -4.8194e-05 0.0464332 0.043448 0.310868 -3.33187 0.0437679 0.103248 0.394219
30559 1 0.00999796 0.0462522 0.00272817 0.32104 -3.31202 -0.158268 -0.10561 -0.272086
8 1 0.0625764 0.0227255 0.0299501 0.121913 -3.34388 0.16712 0.00241842 -0.247772
12 1 0.0946832 0.0226263 0.00985184 0.324047 -3.36743 0.0534045 -0.0556199 0.231244
1610 1 0.120612 0.022954 0.0343753 0.207708 -3.36084 0.0125948 -0.00319292 0.099274
87 1 0.0675296 0.0471499 0.00679904 0.230973 -3.35493 -0.00238644 -0.198295 0.143768
1689 1 0.0924344 0.046668 0.0316693 0.073639 -3.35806 -0.00819597 0.0604084 -0.0581449
91 1 0.126302 0.0464604 0.0124098 0.175028 -3.35056 -0.0504392 0.0593262 0.334697
16 1 0.155586 0.0233916 0.0170395 0.257557 -3.33734 -0.272902 -0.202584 -0.0132812
1614 1 0.180044 0.0233255 0.0421632 0.120924 -3.33378 -0.0916621 -0.014103 -0.193153
95 1 0.184653 0.0467855 0.0205801 0.204995 -3.32355 0.096974 0.0833271 -0.230783
1693 1 0.150381 0.0467764 0.0379954 0.0947468 -3.3499 -0.113926 0.129063 0.0223537
20 1 0.213371 0.0232162 0.0231113 0.227053 -3.33624 -0.0356302 -0.111058 -0.0574627
99 1 0.244485 0.0453989 0.0268001 5.73932 -3.32405 0.0990108 0.221887 -0.0511303
1697 1 0.210118 0.0470412 0.0448622 0.0993792 -3.31147 -0.151666 0.040528 -0.207695
18 1 0.248268 0.0206897 0.00495307 5.15314 -3.31919 -0.266486 0.228411 0.0301214
97 1 0.219686 0.0459369 0.00157619 5.55829 -3.3399 0.147004 -0.0617186 0.172472
24 1 0.272511 0.0205955 0.0300045 6.97045 -3.33368 0.204239 0.181087 -0.0521933
22 1 0.294289 0.0271166 0.00500169 1.70954 -3.22803 0.404462 -0.165958 0.202953
28 1 0.320522 0.0280356 0.027581 0.605786 -3.29482 -0.209959 -0.0376759 0.0528361
32 1 0.360975 0.0346017 0.0242871 0.289978 -3.27086 0.0801876 -0.0652188 -0.100628
25 1 0.324548 0.0062342 0.0044076 7.14154 -3.22091 -0.202094 -0.164803 0.0414668
27 1 0.346914 0.003008 0.0274769 0.370724 -3.27323 -0.0127332 0.195929 0.157334
29 1 0.365122 0.0102958 -0.00180832 6.74223 -3.29338 -0.261386 0.00186484 0.0833822
31 1 0.387991 0.0106658 0.0238128 0.436879 -3.27882 -0.211986 0.0596179 0.0673659
36 1 0.403459 0.0411096 0.0213961 6.59361 -3.3118 0.050108 -0.0750064 -0.127267
35 1 0.431327 0.0166201 0.0215183 8.98121 -3.24927 -0.294257 0.316083 0.109069
40 1 0.440668 0.0429889 0.00439698 6.91299 -3.2832 -0.11315 -0.323664 -0.203118
39 1 0.466472 0.018873 0.00850595 7.7749 -3.15722 0.188178 -0.0708518 -0.191066
1638 1 0.464923 0.0396157 0.0308975 1.18956 -3.25916 0.212307 -0.471217 0.158217
1641 1 0.495904 0.0150606 0.0357256 7.07024 -3.29641 0.094485 0.180376 -0.0898621
44 1 0.500239 0.0345526 0.0119349 9.21613 -3.26098 -0.0335193 0.132655 0.0910364
43 1 0.53435 0.0194911 0.0178356 7.84184 -3.28255 -0.134745 -0.0433875 0.0288122
48 1 0.565948 0.0369748 0.0297971 6.92453 -3.28439 -0.167778 0.433906 -0.186958
1642 1 0.52623 0.0370767 0.0427019 0.838062 -3.26296 0.132169 -0.205051 0.119858
52 1 0.574647 0.0116889 0.0139286 6.30694 -3.25416 -0.0248081 -0.215304 0.018919
1650 1 0.599377 0.0177435 0.0360503 5.03845 -3.18745 0.155931 -0.248425 0.0791819
131 1 0.603979 0.0392535 0.0159404 0.730585 -3.22614 0.0682233 -0.067244 -0.0494679
1733 1 0.629976 0.0420264 0.0410598 5.59553 -3.23223 -0.0365918 0.097221 -0.217826
56 1 0.636929 0.0160976 0.0248546 0.716179 -3.29307 0.0227065 0.0726003 0.0293225
135 1 0.664639 0.0414502 0.0256454 6.35421 -3.26172 0.181473 0.0173532 0.142078
54 1 0.672799 0.0170863 0.00830831 1.49388 -3.32296 -0.0955696 -0.0969636 -0.0853836
60 1 0.695703 0.019231 0.0341763 6.87788 -3.19345 0.555605 -0.0736817 -0.343882
64 1 0.734134 0.0230564 0.0206068 10.5298 -3.29874 -0.155214 -0.19684 0.041208
139 1 0.703969 0.0449587 0.0173088 9.65243 -3.28355 0.0197565 0.00822828 -0.0739877
68 1 0.793643 0.0206221 0.0243304 6.43262 -3.26568 -0.081303 0.01909 0.0397311
143 1 0.763822 0.0450997 0.0207866 12.9909 -3.27071 0.102555 -0.139885 0.0442314
1745 1 0.791373 0.0451307 0.0428729 6.59891 -3.25403 -0.298632 0.246059 0.0092225
62 1 0.767441 0.0201965 0.000292047 0.353215 -3.29276 0.0521386 0.280037 -0.0645571
145 1 0.798233 0.045011 0.00332209 0.524968 -3.34804 -0.340427 -0.0837423 -0.270034
72 1 0.853083 0.0229049 0.0293208 0.183492 -3.33862 0.0491903 -0.26748 -0.249687
147 1 0.824657 0.0461835 0.0253755 0.261306 -3.2889 -0.225377 0.0127178 0.027308
149 1 0.856324 0.0464976 0.00733239 0.0829798 -3.3365 0.148297 0.00550229 -0.161909
66 1 0.827295 0.0212888 0.00513824 0.142378 -3.35864 -0.0295417 0.0266506 0.111575
76 1 0.912778 0.0241169 0.0360444 0.409677 -3.33837 -0.20498 -0.216085 -0.315176
70 1 0.886273 0.0229564 0.010649 0.13265 -3.35219 0.0581286 0.0160385 0.210656
151 1 0.882613 0.0472377 0.0317468 0.0999514 -3.35346 0.0587724 -0.123995 -0.0740372
153 1 0.917279 0.0472427 0.0125678 0.463223 -3.3507 -0.225116 -0.100258 0.381578
74 1 0.945697 0.0221392 0.0181863 0.207788 -3.35135 0.140003 0.116252 -0.195471
80 1 0.97195 0.0229511 0.0417585 0.148609 -3.34348 -0.116706 -0.140581 0.198214
155 1 0.94252 0.0470763 0.0378941 0.16588 -3.3527 -0.14608 0.0547833 -0.0423384
157 1 0.976313 0.0466999 0.019685 0.180958 -3.33416 -0.399781 0.0399007 -0.0811963
30480 1 0.979836 0.0219501 1.00024 0.143115 -3.36097 -0.183996 -0.0333544 -0.159133
158 1 0.00448999 0.0707874 0.0222196 0.0843996 -3.34962 -0.0199359 0.149612 0.236622
161 1 0.0331947 0.0952036 0.0255835 0.136066 -3.35539 0.10434 -0.261184 -0.00799446
239 1 -0.00123007 0.0949065 0.0437311 0.0847319 -3.3529 0.208178 -0.0800905 -0.0773566
30484 1 0.0378955 0.0699319 0.00406372 0.101889 -3.34834 0.160873 0.239386 0.0915749
30639 1 0.00915755 0.0944081 0.000596891 0.0633427 -3.34012 -0.0397767 0.0457533 -0.0271849
82 1 0.0637083 0.071189 0.0288464 0.159964 -3.35398 -0.214007 -0.0792243 -0.188411
92 1 0.0971166 0.0700149 0.009766 0.0855036 -3.35551 -0.00729713 0.120903 0.0264232
1690 1 0.122141 0.0707674 0.034843 0.0933142 -3.37105 0.00350652 -0.110118 -0.186488
167 1 0.093111 0.0938474 0.031688 0.21763 -3.35133 -0.158664 0.249129 -0.213548
165 1 0.066873 0.0944552 0.00649078 0.0779613 -3.35744 0.0990599 -0.157285 0.193981
171 1 0.12601 0.0943197 0.0115679 0.16258 -3.33968 0.0615944 -0.0883054 0.241579
96 1 0.156293 0.0712335 0.015694 0.206627 -3.36321 -0.112867 -0.105492 -0.00713909
1694 1 0.180616 0.0705523 0.0407709 0.0984125 -3.34772 -0.0872711 0.255999 0.0615094
175 1 0.184745 0.0953376 0.0182442 0.343873 -3.35709 0.186479 -0.0015417 0.133809
1773 1 0.15095 0.0947643 0.0371811 0.0737034 -3.36848 0.0853928 0.0217815 0.0663415
100 1 0.21621 0.0703606 0.0224762 1.73206 -3.35021 -0.0842543 0.071795 0.0423224
1777 1 0.210412 0.0940956 0.0437954 0.910738 -3.35398 -0.237609 0.18926 -0.0600383
98 1 0.243007 0.0745048 0.998888 2.04197 -3.29032 0.00701468 -0.0479817 0.0413702
179 1 0.239437 0.0980185 0.0217139 5.59558 -3.3132 -0.152497 -6.21377e-05 -0.0874877
103 1 0.291935 0.0512731 0.0260931 0.515802 -3.27228 0.258404 -0.212431 -0.0402876
101 1 0.267254 0.0494522 0.00276629 1.42863 -3.25511 0.0896756 0.27998 -0.23179
104 1 0.26601 0.0744587 0.0235423 1.49621 -3.30631 -0.0433581 0.132261 -0.024186
108 1 0.308168 0.0820926 0.0192417 0.331474 -3.33432 -0.0699887 0.228545 0.242175
107 1 0.333799 0.0584817 0.0227098 0.268652 -3.29865 0.0865255 0.05232 -0.0990232
112 1 0.350239 0.0909974 0.0165228 7.55748 -3.33285 -0.0636143 -0.28526 0.0670005
1706 1 0.33198 0.0817499 0.0446467 0.150938 -3.32265 -0.221435 0.198117 -0.107176
1710 1 0.373043 0.0885121 0.0420987 7.26878 -3.34703 0.0643431 0.108063 -0.115172
111 1 0.375795 0.0656367 0.0199664 7.56318 -3.33956 -0.0135855 -0.00430829 -0.131392
115 1 0.411558 0.0646673 0.00193678 5.14636 -3.25591 -0.1774 0.0407357 -0.0487808
1713 1 0.400244 0.0637201 0.0439897 7.06608 -3.34847 -0.0731659 0.0599505 -0.0944157
116 1 0.406349 0.0883709 0.0232042 0.251093 -3.32785 0.0340797 0.0361289 -0.0462489
1717 1 0.435125 0.0638033 0.0256737 0.563812 -3.28946 0.183711 0.277279 0.280503
119 1 0.473381 0.0614187 0.0124295 5.92299 -3.17783 -0.198127 -0.175503 0.210054
120 1 0.441019 0.0874438 0.00525374 3.63846 -3.3331 0.217173 -0.115499 0.16212
1718 1 0.466418 0.0863579 0.0312142 0.491332 -3.33689 0.00193413 0.0570187 -0.0660115
1721 1 0.497698 0.0605955 0.0378528 1.02634 -3.31122 -0.0229165 -0.208695 -0.250845
124 1 0.504047 0.0844799 0.0189695 0.830227 -3.24962 0.292101 0.00846308 0.166734
123 1 0.532948 0.0562751 0.0203404 7.51402 -3.34142 0.191323 0.231464 -0.0186397
128 1 0.54091 0.0833049 0.00378527 0.694008 -3.30052 -0.0661845 -0.0530408 0.29947
1726 1 0.562905 0.0827713 0.0301038 0.843208 -3.2986 -0.0613153 0.382145 -0.409695
1722 1 0.5256 0.0835742 0.0432909 0.383987 -3.30635 0.331748 0.176108 0.00935153
127 1 0.571927 0.0604479 0.00925727 5.82865 -3.31224 -0.07531 -0.157083 0.169911
132 1 0.600837 0.0834363 0.0136668 7.19616 -3.34407 0.166982 -0.0454773 0.0206748
1729 1 0.595263 0.0608788 0.0355938 1.0101 -3.32111 -0.247759 -0.107288 0.179288
1730 1 0.624872 0.0828629 0.0406467 8.95481 -3.265 -0.110141 0.00266403 -0.248328
136 1 0.634604 0.0633543 0.0191859 6.87391 -3.27409 -0.127024 -0.15096 -0.21149
1734 1 0.660732 0.0669096 0.0436112 6.69282 -3.22827 0.0197261 -0.0338675 0.092052
140 1 0.676137 0.0706477 0.0149437 11.5496 -3.30612 0.065121 0.0864694 0.0482227
215 1 0.644407 0.092272 0.00941334 9.258 -3.25642 -0.0327774 -0.400398 -0.0912108
144 1 0.733568 0.0671066 0.0191655 8.66013 -3.28616 -0.151732 0.149465 -0.261146
219 1 0.707412 0.0923468 0.0145979 7.06194 -3.26066 -0.199476 -0.337164 -0.083322
1821 1 0.730407 0.0929226 0.0395543 8.30199 -3.28463 -0.0393103 0.0908032 -0.375464
1817 1 0.68938 0.0887225 0.0438316 12.8859 -3.23423 0.169153 -0.203105 -0.0250185
148 1 0.793843 0.0701576 0.0218806 0.153625 -3.33117 0.0918861 -0.000361935 0.089582
223 1 0.763838 0.0932049 0.0192653 0.154365 -3.34302 -0.0237891 -0.0520239 -0.0809922
1825 1 0.790175 0.094118 0.0431358 0.152727 -3.32904 0.115887 -0.137578 -0.288302
1742 1 0.761328 0.0694255 0.0401231 6.08614 -3.25208 -0.00584308 0.0504301 0.283908
225 1 0.797445 0.0939659 1.00006 0.107218 -3.34706 -0.133927 -0.247954 -0.0416559
152 1 0.853284 0.0705043 0.0275834 0.0951291 -3.35411 -0.0989682 0.0977184 0.134523
229 1 0.857545 0.0944056 0.00641591 0.206408 -3.34805 -0.124223 -0.10778 -0.130312
146 1 0.826079 0.0700741 0.00316192 0.329016 -3.33832 0.292054 0.0320689 0.207102
227 1 0.823584 0.0940479 0.0239386 0.0829971 -3.36119 -0.0683054 -0.0664085 0.132461
156 1 0.911261 0.0704287 0.0345329 0.111936 -3.3664 0.135662 0.0289479 -0.0729696
150 1 0.88605 0.0704237 0.00949145 0.133558 -3.37075 0.183137 -0.00397282 -0.0484986
233 1 0.915848 0.0936888 0.0126699 0.164633 -3.37068 -0.0450681 0.143391 0.0409863
231 1 0.882406 0.0947349 0.0311433 0.070945 -3.34905 0.089841 -0.0546017 -0.107745
154 1 0.946012 0.0710128 0.0156088 0.125564 -3.36774 0.021829 -0.067976 0.157286
160 1 0.969857 0.0707969 0.0409806 0.107203 -3.34826 0.154828 -0.0419371 -0.202859
237 1 0.974528 0.0950825 0.0188584 0.110198 -3.36762 0.0264964 -0.0992409 0.0817924
235 1 0.940606 0.0943233 0.0378743 0.106006 -3.35533 0.0119455 0.150749 -0.281518
241 1 0.0337526 0.141729 0.0248247 0.112776 -3.36115 -0.144626 0.138122 -0.137062
238 1 0.00440705 0.118045 0.0218708 0.0922792 -3.36108 -0.199743 0.215996 -0.0733248
30564 1 0.0379329 0.117823 0.00293169 0.0918403 -3.35155 -0.097299 0.248361 -0.00138489
319 1 -0.000710294 0.14252 0.042869 0.0556385 -3.34718 -0.0608934 -0.0624539 -0.039096
162 1 0.0623375 0.118773 0.0280606 0.135107 -3.35432 0.238796 -0.208939 0.0829321
172 1 0.121055 0.118216 0.0334746 0.236883 -3.33434 0.0928584 -0.101402 0.324011
245 1 0.0929261 0.141825 0.0318963 0.274944 -3.33512 -0.204409 -0.00579866 -0.263984
30643 1 0.0677631 0.141719 0.00655204 0.0770745 -3.36148 -0.16887 -0.0150846 -0.135066
166 1 0.0968278 0.117784 0.00935702 0.0764994 -3.34699 -0.156311 0.00178694 -0.0308921
249 1 0.12566 0.141088 0.0120903 0.425988 -3.31716 -0.104695 0.358226 0.138723
176 1 0.154005 0.118611 0.0152985 0.120803 -3.32592 0.236832 -0.111135 0.0317019
255 1 0.182595 0.143111 0.0186208 7.44747 -3.33078 -0.0804945 0.215354 -0.0815396
251 1 0.149778 0.142162 0.0385401 0.351674 -3.33777 -0.0334508 0.00361937 -0.298686
1774 1 0.180352 0.119501 0.0406621 0.341963 -3.34554 -0.0934428 -0.366065 -0.0187909
180 1 0.211826 0.12168 0.0202099 6.634 -3.29987 -0.0105197 -0.402508 -0.0496836
1778 1 0.235639 0.120392 0.0447123 6.51633 -3.3127 -0.175966 0.139853 0.134269
1857 1 0.207719 0.143988 0.0432096 7.17674 -3.32409 0.0453885 -0.00674748 -0.0445847
184 1 0.252235 0.129525 0.0164174 0.0681389 -3.30695 0.0732786 0.0300016 -0.0324854
183 1 0.280339 0.10635 0.018196 0.057766 -3.32198 0.0928341 -0.147327 0.0480889
188 1 0.294065 0.138161 0.0136347 6.86572 -3.3537 0.121856 -0.0314585 -0.093769
1782 1 0.276706 0.129802 0.040761 0.165427 -3.31825 0.0384795 -0.0215524 0.0993138
1785 1 0.304835 0.106316 0.0425052 0.0910882 -3.32862 -0.00860908 -0.193677 0.0120593
1789 1 0.346561 0.113041 0.0400788 7.47404 -3.36243 0.0299887 0.117089 -0.167214
187 1 0.322532 0.113882 0.0144959 6.97625 -3.3401 -0.20286 0.227091 0.0971796
192 1 0.352179 0.137837 0.0186254 0.090788 -3.34377 0.0548528 -0.0215733 0.165166
1786 1 0.318139 0.136936 0.0389797 6.82419 -3.34392 0.0864918 0.0549764 -0.343681
195 1 0.437159 0.110383 0.0274644 0.387126 -3.32822 -0.0212999 0.0895026 -0.0163795
191 1 0.381244 0.113841 0.0208659 0.366021 -3.30291 -0.239861 -0.0862084 0.150487
196 1 0.410671 0.135727 0.025761 0.391437 -3.30705 0.0147955 0.261935 0.0024968
1790 1 0.376983 0.136143 0.0441797 0.0831629 -3.35165 -0.137725 0.181228 -0.221275
1793 1 0.405201 0.111849 0.0460215 0.18584 -3.34384 -0.133009 -0.0326858 0.1934
194 1 0.440778 0.134302 0.00569488 6.50381 -3.30199 -0.0110542 -0.0563556 -0.0922921
199 1 0.471233 0.111538 0.0108995 1.70229 -3.29054 0.0122883 -0.401262 0.20893
200 1 0.465927 0.134212 0.0321231 0.709175 -3.31274 0.081413 0.0718072 -0.0153136
1801 1 0.496194 0.109543 0.0372644 0.276956 -3.33687 0.0476907 0.102846 -0.0927802
1805 1 0.533687 0.108362 0.0236001 0.36807 -3.32652 -0.023395 -0.237691 0.0419323
208 1 0.540865 0.129926 0.00220842 7.14244 -3.31388 0.0693773 -0.00445358 0.233305
1802 1 0.501094 0.133207 0.0161496 0.341265 -3.29802 0.160987 0.182351 0.0892012
1806 1 0.564441 0.129738 0.0296331 6.68049 -3.30241 0.105886 -0.015407 -0.637988
1808 1 0.525124 0.133077 0.0421105 0.474955 -3.33423 0.144753 0.0498466 0.15566
207 1 0.5706 0.10575 0.00783585 7.43627 -3.33903 0.0564508 0.0639736 0.208129
212 1 0.586108 0.135009 0.00163161 6.53061 -3.30469 -0.00151237 0.164851 0.123333
211 1 0.614409 0.113414 0.00479762 7.59046 -3.29537 0.160336 -0.120173 0.137531
1809 1 0.59347 0.105086 0.0346732 7.21533 -3.30447 0.0624375 0.00558282 -0.263089
1810 1 0.60959 0.134106 0.0276202 6.83344 -3.30686 0.00457223 0.177321 -0.0182352
216 1 0.646381 0.135385 0.00788905 0.837394 -3.31828 -0.118738 0.0677628 -0.150408
220 1 0.674829 0.112447 0.0124364 6.22759 -3.27348 -0.057082 0.108555 -0.142587
1813 1 0.639665 0.113128 0.0308843 10.7971 -3.26958 -0.0398344 -0.0250692 0.201225
1897 1 0.673466 0.140315 0.0306508 8.3965 -3.2227 0.00687127 0.037445 -0.0302028
224 1 0.736576 0.116949 0.0156249 0.372374 -3.34133 -0.204433 0.011428 -0.0219356
1818 1 0.702369 0.116506 0.0329988 4.91521 -3.2522 0.34976 0.281579 0.162216
1901 1 0.733145 0.141964 0.0348857 0.303251 -3.30998 -0.102196 -0.338452 -0.12685
299 1 0.70503 0.139754 0.0113959 0.240326 -3.31278 0.239113 -0.106142 0.130749
228 1 0.793416 0.117799 0.0196519 0.23068 -3.32989 0.0157873 -0.032364 0.415093
1822 1 0.762 0.117379 0.0389986 0.247255 -3.33008 -0.125762 0.177977 0.0245042
303 1 0.764773 0.141372 0.0164455 0.11363 -3.32874 0.0888232 -0.086904 -0.109838
1905 1 0.790984 0.142254 0.0407463 0.149748 -3.35886 -0.063378 -0.36921 0.173156
232 1 0.853148 0.118292 0.0262353 0.117156 -3.35779 0.0171542 0.109306 0.22731
1826 1 0.819214 0.118033 0.0443535 0.137297 -3.37307 0.0295563 0.176617 0.133256
307 1 0.824178 0.141311 0.0224801 0.133578 -3.34812 -0.0882224 0.0825616 0.0653111
309 1 0.856883 0.142037 0.00416366 0.206247 -3.35011 0.181518 -0.187367 0.148211
226 1 0.826047 0.117169 0.00243059 0.310594 -3.31324 0.451291 0.0906165 -0.0988283
236 1 0.911312 0.11921 0.0335652 0.140869 -3.35401 0.0726362 -0.226787 -0.0727151
230 1 0.886364 0.118443 0.00854845 0.0583647 -3.36478 0.0966975 -0.0134302 0.0656063
311 1 0.882402 0.142881 0.0299971 0.0625527 -3.34904 -0.0382716 -0.175222 -0.115388
313 1 0.915147 0.14292 0.0113625 0.230688 -3.37279 0.0374708 -0.149813 -0.00511516
234 1 0.944744 0.117924 0.0154614 0.106656 -3.36815 0.0715554 0.0538562 0.0400059
240 1 0.970186 0.118777 0.0411222 0.236658 -3.35439 -0.0667645 -0.119667 -0.324692
315 1 0.940894 0.141823 0.0361075 0.207311 -3.33474 -0.172358 0.155599 0.131576
317 1 0.973659 0.142036 0.0185627 0.122164 -3.34812 0.186494 -0.16582 -0.266871
321 1 0.0327523 0.189762 0.0237912 0.118106 -3.33052 -0.0634484 -0.0997858 0.0386987
318 1 0.00336355 0.165273 0.0206231 0.123058 -3.35393 -0.00859951 0.16851 0.110954
399 1 0.998208 0.189243 0.0419172 0.1292 -3.34276 0.080815 0.0835209 -0.0686243
30644 1 0.0370076 0.166399 0.00334969 0.19478 -3.34402 0.110737 -0.318479 -0.154854
242 1 0.0628563 0.165257 0.0277889 0.0934866 -3.33104 -0.0242084 -0.0317185 0.0207432
246 1 0.120309 0.165599 0.0336313 0.404839 -3.34651 0.334979 0.142283 0.153291
325 1 0.0917409 0.188958 0.0307058 0.317921 -3.30639 0.0960104 0.203434 0.181646
30723 1 0.0669563 0.18907 0.00690494 0.326995 -3.31926 -0.0742198 0.278009 -0.251981
30648 1 0.0962487 0.165386 0.00913088 0.173599 -3.32001 0.119885 0.017914 0.115445
30727 1 0.124973 0.19123 0.0127497 6.90969 -3.36205 0.276534 -0.217736 0.137161
256 1 0.178801 0.16717 0.0409088 7.13701 -3.33207 0.0730004 -0.00247115 0.0350096
250 1 0.154557 0.166796 0.016139 7.8581 -3.37216 -0.116044 0.186224 -0.00625908
329 1 0.150908 0.191577 0.0376455 7.74613 -3.36453 -0.0784105 -0.179668 -0.0236251
335 1 0.167175 0.20025 0.0101138 6.91901 -3.29302 -0.0272728 -0.20469 -0.0185801
259 1 0.224103 0.152438 0.0142719 0.177187 -3.32304 -0.00576993 0.206908 0.0883584
260 1 0.195442 0.175697 0.0137782 0.242025 -3.31505 -0.116692 -0.0137008 -0.294528
264 1 0.23714 0.184602 0.0096977 7.23319 -3.36896 -0.129624 0.0591307 -0.0848069
1858 1 0.219396 0.175879 0.0376737 0.163631 -3.32195 0.209947 -0.0330071 -0.0109097
1937 1 0.191047 0.199515 0.0350907 0.156451 -3.28479 0.102369 0.0602858 -0.111491
1861 1 0.248301 0.152523 0.0395801 0.0721607 -3.33702 -0.00156782 0.0702608 -0.0405316
263 1 0.266311 0.161678 0.0119739 6.81654 -3.35491 -0.0926989 0.081836 -0.115066
1862 1 0.26086 0.184611 0.0342398 7.95092 -3.3352 0.263633 -0.141246 -0.0436994
268 1 0.296675 0.186428 0.0148754 0.182445 -3.34762 -0.0885195 -0.226754 0.102985
1865 1 0.290328 0.161679 0.0364662 7.45731 -3.34902 0.0565556 -0.0657419 -0.13611
267 1 0.324596 0.16162 0.0169965 0.116393 -3.34081 -0.167562 0.173378 -0.030024
272 1 0.354718 0.185705 0.0207726 0.13294 -3.34859 -0.0902078 0.0317753 0.0818233
1869 1 0.347582 0.160905 0.0415789 0.245996 -3.34126 0.29157 -0.0594241 0.011988
1866 1 0.321064 0.18663 0.0394139 0.69857 -3.32455 0.0248513 -0.381061 0.0432931
271 1 0.381979 0.16156 0.0225926 0.26972 -3.35583 0.0291722 -0.146797 0.314646
273 1 0.416526 0.161349 0.00626199 5.8001 -3.29889 0.220503 0.19176 -0.0483304
276 1 0.412009 0.185147 0.0287955 0.143284 -3.34859 -0.0956788 -0.0959653 -0.148467
270 1 0.388944 0.18626 0.00225994 0.244369 -3.3339 -0.150352 0.00334791 0.146755
1870 1 0.377937 0.183668 0.0469228 0.187368 -3.33219 -0.00832156 0.154745 -0.27298
275 1 0.440429 0.15988 0.0307126 0.763935 -3.35197 0.13825 0.238616 0.0544502
280 1 0.446222 0.186605 0.011904 6.26841 -3.3024 0.114377 -0.261181 -0.0580078
279 1 0.468002 0.15754 0.00861934 5.87996 -3.29444 0.214248 0.0534259 0.118245
284 1 0.498219 0.17973 0.0146457 6.32856 -3.28269 -0.251956 -0.276473 -0.105354
1881 1 0.494115 0.157637 0.0364027 1.68393 -3.32201 0.0337855 -0.0036875 -0.0232273
1878 1 0.471532 0.185792 0.0365743 2.4964 -3.30798 -0.127983 -0.353082 0.113646
1882 1 0.524541 0.178667 0.0411719 3.46522 -3.2709 -0.269012 -0.0640313 -0.0825975
1885 1 0.531267 0.155028 0.0204896 2.02447 -3.32448 -0.138886 -0.0122594 -0.028103
1886 1 0.554869 0.180462 0.0216695 0.796981 -3.2902 0.218382 -0.00789283 -0.0945907
291 1 0.617598 0.158074 0.0041656 0.395978 -3.32773 0.08709 -0.0332042 0.154015
292 1 0.589697 0.181128 0.00257498 0.57927 -3.32809 -0.258853 0.171801 -0.035988
1889 1 0.583605 0.158003 0.0225633 5.70033 -3.29973 -0.00935872 0.0444414 0.454538
1890 1 0.613271 0.180793 0.0283072 1.55033 -3.28024 -0.0172588 -0.148962 -0.183203
295 1 0.676717 0.162742 0.00898836 1.61604 -3.26023 -0.16321 -0.0707918 0.188432
296 1 0.645642 0.182663 0.00796231 0.360547 -3.33262 -0.115193 0.0919302 -0.107762
1893 1 0.640261 0.156394 0.0300133 6.70049 -3.25229 -0.225365 0.17154 0.0753276
1894 1 0.666201 0.180983 0.0349464 9.31858 -3.29303 0.12387 -0.169445 -0.0766799
300 1 0.703572 0.165082 0.0312041 5.07843 -3.28513 -0.361826 -0.0876986 0.0982202
304 1 0.734933 0.164015 0.0122402 0.220382 -3.33668 0.0444114 0.139087 0.0723185
379 1 0.733026 0.189912 0.0314635 0.386095 -3.32693 0.0824921 -0.0195684 0.162867
377 1 0.704381 0.187984 0.0108563 1.43262 -3.33321 0.0520724 0.0947933 -0.176878
308 1 0.794293 0.16463 0.0190255 0.128656 -3.32932 0.145883 -0.0169566 -0.249693
1902 1 0.761791 0.164715 0.0369419 0.298993 -3.32344 -0.0682124 0.337153 0.00748376
383 1 0.766234 0.187557 0.0148539 0.483402 -3.3487 -0.212007 0.322015 -0.0710527
1985 1 0.791304 0.190485 0.0393316 0.28524 -3.31498 -0.227028 -0.140936 -0.159307
1906 1 0.819134 0.165813 0.0430659 0.162336 -3.33437 0.304075 0.0307024 0.131499
312 1 0.852803 0.165307 0.0259802 0.188071 -3.34702 -0.0666446 0.14574 -0.150712
387 1 0.823025 0.18865 0.0211886 0.170448 -3.3449 0.131444 0.181352 -0.00276319
1989 1 0.849497 0.190283 0.0461561 0.211691 -3.34231 -0.295944 -0.161154 0.0468089
389 1 0.85429 0.189488 0.00241671 0.567856 -3.31527 0.32132 -0.0375884 0.424401
306 1 0.827942 0.164595 -0.000132265 0.212406 -3.34319 -0.247402 -0.0351307 0.237407
310 1 0.88542 0.166483 0.00772846 0.188952 -3.35453 0.0373124 -0.244431 -0.0557481
316 1 0.911423 0.166431 0.0334325 0.199941 -3.34246 0.032997 -0.0823015 -0.264756
391 1 0.881046 0.189636 0.02815 0.162704 -3.34303 0.0893564 0.190695 -0.0487687
393 1 0.915039 0.190235 0.0113646 0.306922 -3.34222 -0.062157 -0.115338 -0.211965
314 1 0.944901 0.166165 0.0145281 0.093831 -3.36593 -0.136197 -0.0108871 -0.121982
320 1 0.969346 0.165889 0.0387624 0.0825876 -3.3433 -0.0554422 0.131762 0.137353
395 1 0.939289 0.190435 0.0357313 0.153259 -3.34069 0.153456 -0.0654384 -0.124414
397 1 0.972914 0.190421 0.0175287 0.21714 -3.35811 -0.00790011 -0.266331 -0.164385
324 1 0.0269417 0.212198 0.0446681 0.302195 -3.33149 0.1783 0.200618 0.0918026
401 1 0.0325502 0.236792 0.0227458 8.1792 -3.29375 -0.303126 -0.0770431 -0.190099
398 1 0.00247833 0.212348 0.0194926 0.267179 -3.33256 0.0244914 0.398003 0.185752
30724 1 0.0364836 0.2133 0.00161397 5.35671 -3.3192 0.0239785 -0.104307 -0.0640435
322 1 0.0623275 0.212771 0.0276555 5.4912 -3.291 -0.109256 -0.0400212 -0.0248363
326 1 0.122253 0.214698 0.0353408 9.38973 -3.29267 -0.0137476 -0.0923503 -0.337473
405 1 0.0723674 0.243494 0.0203118 10.7323 -3.28591 0.329308 0.248705 0.0065215
409 1 0.108355 0.245815 0.00493403 5.22469 -3.26113 0.0445436 0.070108 0.166954
30728 1 0.0965758 0.214984 0.0115677 9.47225 -3.34036 -0.0911181 0.137378 0.00319046
336 1 0.164411 0.224887 0.0305833 6.54462 -3.25678 0.0145772 -0.319107 0.0692037
330 1 0.138669 0.222642 0.00850749 6.88295 -3.24514 -0.183902 0.130237 -0.348584
411 1 0.133645 0.246366 0.0287367 7.32276 -3.26256 -0.0187531 0.00974223 0.17877
339 1 0.207963 0.208291 0.0079278 10.2846 -3.32643 -0.159566 -0.0961849 0.0030891
340 1 0.203898 0.231211 0.029341 9.79028 -3.2966 0.116644 0.097983 -0.164363
344 1 0.237493 0.233095 0.0119639 0.241444 -3.29733 0.194229 -0.226744 -0.028184
1941 1 0.233193 0.207545 0.0322806 7.49123 -3.33287 -0.0982579 0.0481269 -0.0438173
343 1 0.267566 0.209543 0.0138156 0.156662 -3.34494 -0.062984 -0.00257802 0.0230224
348 1 0.29687 0.233321 0.0184063 0.201702 -3.36221 -0.0436892 -0.0447799 -0.249175
1942 1 0.263256 0.232414 0.0370903 0.211883 -3.32426 0.197595 -0.171885 -0.165163
1945 1 0.291505 0.208298 0.0390016 0.337245 -3.32899 0.160347 0.25961 -0.153066
347 1 0.326168 0.210753 0.0190797 0.320953 -3.33837 -0.022787 -0.239369 -0.0492598
349 1 0.359752 0.20969 -0.000497135 0.214447 -3.36021 -0.111774 0.137088 0.100883
352 1 0.355797 0.233121 0.0225842 0.242488 -3.33968 -0.0450283 0.0178181 0.254604
1949 1 0.350333 0.2085 0.0444235 0.145784 -3.34654 0.148933 0.127562 -0.0066996
1946 1 0.322813 0.232669 0.0424038 0.13528 -3.3549 -0.0263055 -0.0481238 0.0475089
355 1 0.416399 0.210349 0.00722583 0.422212 -3.33226 0.262702 -0.125157 0.0296688
351 1 0.38328 0.209087 0.025905 0.0958883 -3.33818 -0.0745846 -0.125981 -0.0827474
356 1 0.388307 0.233111 0.00406454 0.186528 -3.34161 -0.0041732 0.281813 0.0319338
1954 1 0.411877 0.231885 0.0302113 0.273882 -3.32816 0.230427 0.30471 -0.11229
360 1 0.447399 0.232535 0.0123142 0.116164 -3.33431 -0.0884065 0.20559 0.142833
359 1 0.478066 0.209175 0.0171042 6.71969 -3.33221 0.182142 0.123279 -0.013538
1957 1 0.44176 0.208752 0.0329353 0.135803 -3.32597 0.0308542 0.0768837 0.213903
1958 1 0.472262 0.232018 0.039304 0.1506 -3.35558 0.0620017 -0.000190835 -0.123082
1961 1 0.504695 0.208828 0.0437111 7.49999 -3.34472 -0.244626 -0.10054 -0.230515
364 1 0.509058 0.232535 0.0224293 7.61327 -3.34114 -0.138873 -0.128639 0.180143
363 1 0.524758 0.202287 0.0175242 7.25679 -3.27776 -0.0762328 0.234525 0.153407
368 1 0.552023 0.225674 0.0229322 6.71977 -3.30049 -0.0360757 -0.0825092 -0.0431417
1965 1 0.548734 0.202355 0.0447003 6.14172 -3.26494 -0.042945 0.144272 0.0561764
371 1 0.616281 0.205844 0.00546287 0.336169 -3.32331 -0.06093 -0.154565 -0.125683
372 1 0.584433 0.226916 0.00288849 0.417819 -3.26191 0.535 0.102864 0.128428
1969 1 0.582496 0.204006 0.0253458 0.691472 -3.28779 0.213549 -0.306552 0.0135844
1970 1 0.611001 0.225883 0.0291262 0.881917 -3.26834 -0.0883933 -0.0522801 0.0499192
447 1 0.581834 0.24774 0.0274662 7.16358 -3.27834 -0.210289 -0.43597 -0.0297215
451 1 0.614768 0.248889 0.00725059 1.33115 -3.27044 -0.341199 0.251784 -0.156583
375 1 0.673524 0.208915 0.0103356 6.13763 -3.339 0.131395 -0.124925 0.00295647
376 1 0.645065 0.230007 0.00867238 5.20606 -3.2644 -0.167535 -0.129116 -0.207339
1973 1 0.639947 0.204169 0.0299587 7.62258 -3.25784 0.176368 0.379627 0.185859
1974 1 0.672906 0.216312 0.0441197 7.85219 -3.26608 -0.195826 0.128109 -0.296849
455 1 0.676796 0.240865 0.0224486 6.77859 -3.23884 0.00919757 -0.107724 0.192358
2053 1 0.641985 0.243141 0.0373798 2.01406 -3.26138 0.123002 -0.0500395 0.181383
380 1 0.705315 0.215805 0.0277607 5.63637 -3.26915 0.0566439 -0.136678 0.0350138
378 1 0.737508 0.212681 0.00999089 0.851937 -3.29379 -0.340159 -0.0399866 0.155287
459 1 0.732463 0.239759 0.0307786 1.34605 -3.29152 -0.0554222 0.0643671 0.0660884
457 1 0.709331 0.237703 0.00671014 5.9252 -3.22243 -0.0449344 0.113134 -0.158091
2057 1 0.698714 0.242266 0.0478426 0.448046 -3.32235 0.0634032 -0.143042 0.0390716
384 1 0.761443 0.214126 0.0345268 0.101569 -3.34126 0.0133758 0.0819499 0.142274
388 1 0.79441 0.213327 0.0168996 0.0830391 -3.37123 -0.0744062 0.0385385 -0.0943431
463 1 0.790415 0.239138 0.0367201 0.17471 -3.33132 -0.1547 -0.125162 0.307437
461 1 0.764391 0.237322 0.013579 6.28068 -3.2997 0.105226 0.154188 -0.0995074
392 1 0.851662 0.213553 0.023953 0.111668 -3.36571 -0.000249683 0.0588227 -0.243246
467 1 0.822805 0.238728 0.0190986 0.140346 -3.35931 0.0457596 -0.157535 0.0348611
1986 1 0.819409 0.214312 0.0415798 0.0512644 -3.33234 -0.0502595 0.0159761 -0.100063
2069 1 0.84791 0.238639 0.0439267 0.0681385 -3.33787 -0.0397076 0.158201 -0.0202566
469 1 0.855572 0.237281 0.00133928 0.115287 -3.36839 -0.0532075 0.0513537 -0.0522244
390 1 0.884801 0.213964 0.00617768 0.166299 -3.34452 -0.0821685 -0.107751 -0.0704165
396 1 0.909342 0.215192 0.0303976 0.239138 -3.35221 0.172919 -0.173925 0.138186
471 1 0.880226 0.238994 0.0259302 0.108934 -3.31822 0.0711628 -0.112484 -0.0280738
473 1 0.913019 0.238111 0.0079999 0.134739 -3.35182 0.157767 -0.0114328 -0.106313
394 1 0.943483 0.213939 0.0127935 0.0713723 -3.34504 -0.0646565 0.0226637 -0.0298995
400 1 0.968452 0.214752 0.0375353 0.251502 -3.3275 0.233369 -0.184371 -0.0175262
475 1 0.940079 0.238684 0.0323459 0.192593 -3.3417 -0.177492 0.0125913 0.277374
479 1 0.998393 0.237041 0.0408995 0.0702567 -3.34536 0.0359768 0.0272396 -0.151673
477 1 0.973414 0.237756 0.0155208 0.106002 -3.32905 0.158287 -0.0523298 -0.0912361
404 1 0.0279162 0.260079 0.043542 5.41564 -3.29246 -0.029817 0.154547 -0.0561025
402 1 0.0422502 0.269088 0.0159032 9.54041 -3.30295 0.128046 0.12874 0.193545
481 1 0.0151898 0.295594 0.0132384 11.4354 -3.30281 -0.327014 -0.21383 0.107832
478 1 0.0029422 0.261749 0.0173016 7.79663 -3.30983 0.00221984 -0.120512 0.0876858
412 1 0.102968 0.268548 0.0255064 5.69961 -3.28647 -0.064899 0.124524 -0.0663336
406 1 0.0773526 0.26956 0.00160556 7.55028 -3.27751 0.271037 -0.0116315 0.153004
487 1 0.074512 0.294238 0.0217062 6.22317 -3.27773 -0.0180734 -0.137519 0.0423068
415 1 0.175891 0.255022 0.0266061 9.45639 -3.31696 -0.0442821 0.171407 -0.0121768
416 1 0.145479 0.278523 0.0237923 7.43793 -3.32896 0.0238486 0.0254947 -0.0959793
413 1 0.150466 0.254962 0.00292594 9.76221 -3.31441 0.0808342 -0.0874693 -0.0621746
420 1 0.182179 0.280083 0.00835472 0.964493 -3.28884 -0.261363 -0.0421065 -0.222157