ITEM: TIMESTEP
13500
ITEM: NUMBER OF ATOMS
32000
ITEM: BOX BOUNDS pp pp pp
5.4642838597241248e+00 7.5535716140270722e+01
-3.1870987362092080e+00 8.4187098736203353e+01
-3.3558103811874886e+00 8.4355810381183346e+01
ITEM: ATOMS id type xs ys zs c_csym c_peratom fx fy fz
8 1 0.0512222 0.0259878 0.0258494 1.18421 -3.16752 -0.163966 -0.315678 -0.0644808
4 1 0.00915683 0.0230575 0.0278696 5.68442 -3.32303 -0.253883 0.139424 -0.0555827
83 1 0.026467 0.0501659 0.0299089 0.900915 -3.24198 -0.0823195 0.148876 0.0143139
85 1 0.047019 0.0492123 0.0021737 6.94118 -3.19597 0.0666985 -0.212831 -0.0299052
12 1 0.0916226 0.0238348 0.0248071 6.91037 -3.35019 0.115302 0.0763084 0.164941
11 1 0.120245 0.998676 0.027162 2.20911 -3.26881 -0.0174732 0.0243235 -0.336448
1610 1 0.119276 0.0240911 0.046304 0.681149 -3.28686 -0.00708445 0.0495562 -0.161959
10 1 0.117057 0.0273103 1.00029 4.43198 -3.32269 0.101931 -0.150846 -0.0441287
16 1 0.146533 0.0248632 0.0235422 0.628275 -3.35514 0.0841418 -0.0121576 -0.0532872
15 1 0.174285 0.000899822 0.0230249 0.813588 -3.31112 0.0239367 0.0196736 -0.0556011
1614 1 0.175981 0.0248908 0.0459289 1.14694 -3.32513 -0.0839576 0.0324524 0.0674897
14 1 0.175361 0.0242916 0.000977031 0.136351 -3.34092 -0.0895301 0.0281079 -0.000421898
95 1 0.176841 0.0484158 0.0247343 0.110334 -3.34368 0.0401808 -0.0172305 -0.0551997
13 1 0.142774 0.00225826 0.000329834 5.22871 -3.36057 0.0515931 -0.0677274 0.0735441
1693 1 0.146733 0.0485781 0.0462424 0.3146 -3.34314 0.00203395 0.0279161 -0.0373019
20 1 0.204805 0.0239731 0.0238468 0.448352 -3.32369 -0.0309878 -0.0601666 0.142819
1618 1 0.229817 0.0227682 0.0495099 0.453457 -3.34273 0.0276183 -0.0690694 -0.0384742
99 1 0.236036 0.0457936 0.0256859 5.78373 -3.38021 -0.322683 0.217717 -0.069349
97 1 0.205107 0.0470281 0.00226038 0.61411 -3.33828 0.0475075 0.043038 -0.0569467
17 1 0.202191 1.0003 0.000611562 0.0810255 -3.34415 0.00592364 -0.0761788 -0.0767031
1697 1 0.205922 0.0482569 0.0478007 1.25594 -3.32874 -0.164496 -0.0934352 0.0363849
24 1 0.259692 0.0201913 0.0254075 5.57821 -3.32144 -0.138707 0.00967107 -0.00848111
103 1 0.274513 0.0504857 0.0262845 5.74058 -3.19463 0.304423 -0.139931 -0.0132689
28 1 0.29727 0.0265335 0.0214924 5.9641 -3.23615 0.130197 -0.0317554 -0.00493981
32 1 0.344075 0.0314001 0.022681 1.69945 -3.29367 0.249854 -0.148508 -0.164157
27 1 0.322402 0.00341341 0.0202146 6.22909 -3.27457 0.106508 -0.00374869 0.137946
1629 1 0.345742 0.00421038 0.0455424 6.22973 -3.29354 0.147265 -0.00257801 0.198483
31 1 0.373987 0.00782542 0.0237486 7.22621 -3.29946 -0.00275257 -0.109787 -0.0633883
1630 1 0.369052 0.0316921 0.0464155 2.28041 -3.29648 0.186887 -0.223669 0.118253
30 1 0.377957 0.0318498 0.00223357 7.42087 -3.34718 -0.196498 -0.044343 -0.0391221
36 1 0.40298 0.0311904 0.0265299 7.09949 -3.30936 -0.30497 -0.0750574 -0.172336
115 1 0.430311 0.0539339 0.0281586 7.02458 -3.28237 -0.238003 -0.120851 -0.0464581
35 1 0.416194 1.00039 0.0195878 7.29596 -3.34066 0.00951036 0.0190078 0.122487
1634 1 0.426113 0.0298344 0.0504888 6.2273 -3.27275 -0.0501774 -0.143754 -0.0205914
1713 1 0.39855 0.0542979 0.0503188 0.310548 -3.34056 -0.0391406 -0.0704931 -0.0687527
1633 1 0.397222 0.00687641 0.0478442 6.1028 -3.27943 0.0078069 -0.0659441 -0.077924
113 1 0.405416 0.0547975 0.00423417 7.75947 -3.29996 -0.232142 -0.139751 -0.107316
40 1 0.443803 0.0237831 0.0221142 7.04198 -3.35435 0.096706 0.142292 0.0722683
39 1 0.474673 0.00173941 0.0250632 0.337582 -3.33203 0.0814047 -0.0729717 -0.195208
1721 1 0.505754 0.0448098 0.0477439 2.03185 -3.26059 0.0127842 -0.0395912 0.154873
1641 1 0.503712 0.999712 0.0487066 0.0793731 -3.31724 0.0235399 0.0319186 -0.0346198
119 1 0.472954 0.0471629 0.0236205 6.81121 -3.33231 0.259665 -0.0119174 0.0093442
44 1 0.503659 0.0240895 0.0254817 0.222084 -3.32239 0.101827 0.0755704 0.026479
123 1 0.535926 0.0473958 0.0269349 7.51647 -3.28242 -0.160406 -0.0718297 -0.130314
43 1 0.532182 0.000228845 0.0268983 0.251942 -3.32823 0.0939935 0.0465537 -0.0458426
42 1 0.53457 0.0258395 0.00449653 6.18703 -3.31568 -0.0533026 -0.0137057 -0.0321746
48 1 0.562982 0.0242027 0.0272684 7.3445 -3.27321 -0.364838 -0.110191 0.0978502
121 1 0.505186 0.0482826 0.00315151 6.94211 -3.30956 0.0479576 -0.00830101 -0.0313215
41 1 0.504831 0.00297358 0.00312354 0.452315 -3.28494 -0.0151711 -0.183855 0.00674911
45 1 0.558271 0.00147886 0.00298134 6.69737 -3.24814 0.074777 -0.0531394 0.0957199
47 1 0.58567 -0.000657745 0.0256266 7.42978 -3.2302 -0.0202992 -0.0580269 0.0945877
52 1 0.601015 0.0296922 0.0243211 6.77048 -3.21047 -0.137225 -0.0998502 -0.335272
56 1 0.6399 0.0252826 0.0240316 5.96106 -3.27587 -0.0329124 0.1725 -0.0368234
135 1 0.665672 0.0482197 0.0245671 5.21172 -3.32685 -0.00153552 -0.140467 0.0831025
1654 1 0.666633 0.0271393 0.049593 0.821868 -3.30648 -0.0525225 0.0332388 -0.0256854
55 1 0.665841 0.00165785 0.0245398 5.58311 -3.29569 -0.0503057 -0.112878 0.102236
1653 1 0.641997 0.00431459 0.0501699 7.38005 -3.23752 -0.11377 -0.191512 -0.203979
54 1 0.667764 0.0240816 0.000176624 1.14126 -3.3064 -0.1249 -0.0159158 0.078816
60 1 0.695142 0.0245735 0.0255046 0.166996 -3.34664 -0.124647 -0.0733992 0.014623
1657 1 0.691649 0.00163401 0.0505177 0.467528 -3.34238 0.0228074 0.0190006 -0.0594702
1658 1 0.722575 0.0237891 0.0496295 0.201463 -3.3291 -0.0642126 0.0488186 0.0556285
59 1 0.722224 0.000450667 0.0276923 0.161576 -3.32165 -0.0393907 0.051724 -0.204864
58 1 0.724399 0.023442 0.00276225 0.156024 -3.31812 -0.0501115 0.0170748 0.114468
137 1 0.695548 0.0472868 0.00133332 0.548052 -3.35469 0.00660587 -0.0295553 0.0226689
1737 1 0.69527 0.0476257 0.0486916 0.333371 -3.29068 -0.167893 -0.120301 0.0673347
139 1 0.722735 0.0475279 0.0260542 0.189973 -3.32019 0.06158 -0.100171 -0.18879
57 1 0.694871 0.00120748 0.00236967 6.00611 -3.30043 0.0533085 -0.101648 0.143182
64 1 0.751277 0.0240724 0.0263748 0.153147 -3.33916 -0.0319197 -0.034026 -0.0323867
61 1 0.75254 9.08758e-05 0.00280325 1.1271 -3.3551 0.0132852 -0.0307154 0.0515659
68 1 0.803683 0.0237787 0.0282171 5.60521 -3.27249 0.0896726 -0.0608059 0.0595097
62 1 0.780276 0.0244651 0.00252249 6.51867 -3.26976 -0.0261488 -0.136257 0.0463227
1665 1 0.805105 0.000810808 0.0525492 5.42683 -3.30619 -0.033236 -0.0288079 -0.103511
1661 1 0.749486 0.000164602 0.0509194 0.133601 -3.30384 -0.0385788 -0.0106562 0.157919
1741 1 0.749917 0.0478995 0.0494019 0.150287 -3.33511 -0.0186079 0.0485813 0.00116367
72 1 0.845486 0.0274043 0.0220004 5.85997 -3.33833 0.16473 -0.125757 0.0918434
1666 1 0.831018 0.0262446 0.0515049 5.94281 -3.24535 -0.171924 0.0936252 -0.223632
1670 1 0.876303 0.0295378 0.0451258 9.31173 -3.31499 -0.0230991 -0.0598367 0.101895
1669 1 0.853135 0.00147094 0.0472545 6.91918 -3.23957 -0.041419 -0.0161878 0.00390701
66 1 0.819673 0.0264385 0.998197 5.49752 -3.3201 -0.0813585 0.0295898 -0.144935
71 1 0.874985 0.00420422 0.0220044 6.73941 -3.30223 -0.0317933 0.064227 0.0128822
76 1 0.903691 0.029323 0.0233154 5.84485 -3.2938 -0.117091 0.0140445 0.0423393
74 1 0.929281 0.0280959 0.000561408 0.848826 -3.31561 0.136009 0.0529627 0.0235392
75 1 0.92492 0.00234652 0.0268058 0.490491 -3.30551 0.100437 0.00846371 0.174503
80 1 0.950047 0.0257037 0.028122 5.85487 -3.31582 0.136878 0.00995587 -0.0224982
1678 1 0.977821 0.0247869 0.052359 0.3545 -3.30972 -0.0517466 0.0514091 0.0461111
159 1 0.979518 0.0468748 0.0274737 6.94229 -3.30336 0.0299371 0.0742266 0.100715
78 1 0.97942 0.0264536 0.00291768 0.830171 -3.24771 -0.133034 -0.157387 -0.0165777
1677 1 0.950134 0.0018881 0.0524372 0.132296 -3.33139 -0.0364458 -0.0672015 -0.0351524
77 1 0.955614 0.00331662 0.00335194 0.417528 -3.28213 -0.0659611 -0.134661 0.142912
1757 1 0.946549 0.0467827 0.0528599 7.14651 -3.31023 0.12132 0.167437 0.0257923
88 1 0.0436555 0.0774842 0.0298609 6.3036 -3.24597 0.0682881 0.0387671 0.0961124
84 1 0.999286 0.0735503 0.0310676 7.23062 -3.30199 0.094342 0.128867 0.0243239
82 1 0.0229767 0.0739772 0.00303362 7.04234 -3.24652 -0.0457885 -0.0265488 0.149484
89 1 0.0904407 0.0505769 0.000521102 6.41729 -3.36152 0.032592 0.116844 0.137053
91 1 0.119414 0.0494713 0.0229952 0.558044 -3.33973 0.0664899 0.0490264 0.00134623
87 1 0.0674505 0.0532901 0.0271283 6.01344 -3.2125 0.239964 0.10393 0.217998
92 1 0.094184 0.0755553 0.0232325 1.34902 -3.29056 0.121708 -0.0515075 0.100668
86 1 0.0661469 0.0762234 0.00091844 5.60412 -3.29993 0.0811481 0.0294271 0.0484085
169 1 0.0956488 0.0988619 0.000693743 0.2514 -3.33862 0.0539138 -0.0468915 0.0194659
171 1 0.123096 0.0984224 0.0247185 0.477666 -3.3367 0.0124361 -0.00841833 -0.0144928
1690 1 0.119943 0.0741611 0.0469493 5.46944 -3.2891 0.014975 0.00387891 -0.0440126
96 1 0.149585 0.0729332 0.0243532 0.0407413 -3.34388 -0.0123597 0.00548745 0.0603219
1694 1 0.176945 0.0722607 0.0474349 0.322287 -3.3317 -0.0167546 -0.108864 0.0419174
175 1 0.180945 0.0958689 0.0257964 0.447674 -3.3483 0.0501794 -0.0211503 0.0250991
1773 1 0.149601 0.0963402 0.047626 1.87163 -3.29606 0.140863 -0.0461427 0.0113658
173 1 0.152554 0.0969834 0.0025686 0.139991 -3.33585 -0.0213369 -0.0831583 -0.0233782
100 1 0.208683 0.0710591 0.0262698 1.58355 -3.38196 -0.0116834 0.0634319 -0.0546437
1698 1 0.233919 0.0718036 0.0531602 6.86434 -3.34045 -0.165008 0.116465 -0.071345
179 1 0.231408 0.0979368 0.0294595 4.92194 -3.19968 0.0315965 0.0330005 -0.0388854
104 1 0.255224 0.0756559 0.0276927 5.83128 -3.20355 -0.019799 -0.0177897 0.0669137
108 1 0.294628 0.0781134 0.0271417 6.72122 -3.21259 0.00373611 -0.0278484 0.206579
107 1 0.318506 0.0546313 0.0242343 5.75806 -3.22506 -0.0323203 -0.000157193 0.00978727
111 1 0.373458 0.0550683 0.0255527 0.147534 -3.34381 -0.0558901 0.0515661 -0.138627
112 1 0.345442 0.0795771 0.0248335 0.400622 -3.36384 -0.0962156 -0.118263 -0.108064
1706 1 0.319775 0.0777991 0.0497822 4.73751 -3.20607 -0.370157 0.333315 0.0809669
1710 1 0.371677 0.0786527 0.0494945 0.181951 -3.34762 -0.0863105 -0.0845146 -0.0360944
1789 1 0.343864 0.103262 0.0479739 0.924225 -3.35613 -0.00696016 0.0434012 0.0231549
109 1 0.346757 0.0558974 0.000826663 0.702392 -3.37251 0.0214157 -0.12184 0.0311793
106 1 0.317996 0.0800747 -0.000248333 5.2354 -3.39271 0.0913247 -0.0365704 0.0354727
116 1 0.401217 0.0778101 0.0277063 0.191204 -3.34328 0.127331 -0.0559555 -0.00208073
195 1 0.430645 0.0997777 0.029994 0.346827 -3.34021 0.11043 -0.0715711 -0.156424
110 1 0.375841 0.078629 0.00280267 0.111902 -3.35692 -0.0432952 -0.130849 0.019046
114 1 0.43322 0.076314 0.00558875 7.31377 -3.29275 0.0432851 0.302598 -0.0637821
120 1 0.458389 0.0752667 0.0295746 6.671 -3.26286 0.0377125 0.138489 -0.121537
124 1 0.506183 0.0698597 0.0252757 7.12044 -3.32844 -0.00577989 0.122309 0.179661
199 1 0.485908 0.0971293 0.028809 8.77965 -3.24865 -0.0650783 0.0212649 0.10606
128 1 0.546911 0.0799161 0.0209765 7.23052 -3.31305 0.0550848 -0.0624357 0.0422798
203 1 0.520592 0.103203 0.0191753 6.42497 -3.28329 -0.0661036 0.0494676 0.0305239
1722 1 0.533366 0.067344 0.0505519 10.255 -3.25971 0.11549 0.150805 0.078466
1805 1 0.543676 0.106739 0.0457645 8.36951 -3.22346 0.0613897 0.00687435 0.0781208
127 1 0.576428 0.0566838 0.0225364 9.27457 -3.34282 -0.0287643 -0.091963 0.0669132
131 1 0.621387 0.0556656 0.0276857 6.82632 -3.23929 0.19167 0.0185889 -0.116049
1726 1 0.567799 0.081877 0.0483944 7.7088 -3.28805 0.0304028 0.0341042 0.0465158
132 1 0.599333 0.0830974 0.027946 6.86881 -3.2478 -0.0637745 -0.0399656 0.0929326
130 1 0.621891 0.0786132 0.00354825 7.12897 -3.15828 0.22408 0.00270374 -0.315194
1730 1 0.625213 0.0817603 0.0517655 5.22454 -3.32922 0.0243847 -0.106058 -0.115843
136 1 0.649203 0.0765455 0.0244249 5.47637 -3.18111 -0.0950125 0.128083 0.0393118
1733 1 0.641476 0.0525104 0.0536926 6.49523 -3.12169 -0.133766 0.392586 -0.194069
1734 1 0.669009 0.0722525 0.0499657 5.55919 -3.15106 -0.0940254 -0.0539511 -0.099489
140 1 0.69191 0.070558 0.02395 5.11224 -3.31468 0.160814 0.080357 -0.0169117
144 1 0.751089 0.0712057 0.0258619 5.91961 -3.3416 -0.0309088 0.0321947 -0.00896279
138 1 0.724246 0.0694851 0.00294211 7.54378 -3.31861 0.0759837 0.0928373 -0.061084
1817 1 0.692858 0.0955762 0.04752 7.3638 -3.20571 -0.166865 -0.0432457 0.120806
219 1 0.719304 0.0930098 0.025399 6.85417 -3.31078 0.0899856 0.207657 -0.250985
1821 1 0.74711 0.0946206 0.0482483 1.34853 -3.31642 -0.0100374 0.00923687 0.0471175
143 1 0.779904 0.048492 0.0266694 6.22894 -3.31032 -0.114495 -0.0492657 -0.118918
148 1 0.797494 0.0773177 0.0229186 5.96453 -3.31293 -0.036637 -0.0830769 -0.157693
142 1 0.769839 0.0764469 0.997767 6.11007 -3.33292 -0.0260122 0.0267937 -0.0436782
141 1 0.753648 0.0472833 0.00287577 6.43022 -3.31494 -0.00782699 0.0236909 0.0201846
1749 1 0.85083 0.0537439 0.0478795 0.775752 -3.2878 0.060576 0.0970993 -0.0300611
147 1 0.822078 0.0524721 0.023531 5.86667 -3.31523 -0.0393828 0.0922881 -0.0121643
152 1 0.848819 0.0767776 0.0242492 0.272517 -3.30721 0.0256022 0.0765276 -0.0402549
1746 1 0.823667 0.0768917 0.0487906 0.84081 -3.31483 0.0511451 -0.110773 -0.136442
149 1 0.847575 0.0508756 0.99889 0.583387 -3.29824 0.00355534 0.0650877 0.0479045
1753 1 0.905613 0.0545848 0.0460203 7.68824 -3.31303 -0.174024 -0.0486859 0.180137
151 1 0.874299 0.0527077 0.0230993 0.455551 -3.29656 0.133105 -0.00546113 -0.0410609
1750 1 0.877229 0.0787377 0.0476708 0.188339 -3.31834 0.110611 -0.143528 -0.0383444
155 1 0.931543 0.0538148 0.0231658 6.00095 -3.29213 0.049572 -0.065381 -0.019493
156 1 0.903133 0.0773148 0.0233262 0.137421 -3.32232 -0.0745665 -0.0631259 0.0367372
1833 1 0.904757 0.101684 0.0470821 0.297423 -3.31604 0.132821 0.0517091 0.0105913
1754 1 0.934323 0.0775671 0.0457459 7.51407 -3.31633 -0.289086 0.034924 0.147919
150 1 0.874802 0.0764444 0.999908 0.263854 -3.33331 0.0110941 0.0020274 -0.0431784
153 1 0.901416 0.052705 0.000564834 0.288047 -3.3132 0.156624 -0.0782746 -0.0697449
160 1 0.961207 0.0763654 0.0229557 7.18884 -3.31806 -0.179066 0.0632451 0.106824
239 1 0.983323 0.104753 0.0256849 7.86439 -3.26088 -0.199402 -0.138123 0.0607505
1837 1 0.95726 0.103384 0.0485066 7.30266 -3.28458 -0.0921678 0.0303059 -0.0375563
157 1 0.957125 0.052062 1.00004 1.3986 -3.28134 -0.0144072 -0.118993 0.0592757
158 1 0.985558 0.073922 0.999153 6.92078 -3.26545 0.0632446 0.127653 0.0241234
161 1 0.00568514 0.105114 0.000771313 8.37242 -3.26834 0.0352403 -0.0661277 -0.0243062
165 1 0.042691 0.100211 -0.000132451 6.17328 -3.27197 0.111838 0.212725 -0.00767283
163 1 0.0198494 0.100716 0.0323361 7.1573 -3.24444 0.0268715 0.178937 -0.119536
168 1 0.0468462 0.12537 0.0299563 7.82075 -3.28585 0.130837 0.0128407 -0.0574303
164 1 0.00855651 0.130447 0.0242122 7.89103 -3.27093 -0.0492661 -0.0281446 0.250507
162 1 0.0327814 0.131206 0.000596753 9.71824 -3.22334 -0.0652625 -0.160685 0.176668
167 1 0.0687712 0.100085 0.0254634 0.911631 -3.29857 0.0588605 0.0236091 0.0718185
172 1 0.0952533 0.122587 0.0252765 2.46452 -3.34734 0.134883 0.120094 0.0969819
247 1 0.0766549 0.150707 0.0323225 6.43372 -3.27711 0.0809582 -0.0471929 -0.0896253
170 1 0.12603 0.120975 0.00206914 0.0791893 -3.31805 -0.0141933 -0.0331899 0.00875751
1769 1 0.0988404 0.101383 0.0506867 0.716312 -3.28831 0.125158 -0.0267152 0.00592101
1849 1 0.10456 0.148082 0.0526291 0.930858 -3.26381 -0.0438398 0.0853942 0.104961
166 1 0.0693522 0.122512 0.999515 5.64037 -3.3093 0.172484 -0.0809073 0.0177949
249 1 0.0990032 0.143683 0.000725312 5.97364 -3.31489 -0.24089 0.181357 0.003095
176 1 0.154574 0.120606 0.0257569 0.322866 -3.33169 -0.123264 0.0247157 0.0142247
255 1 0.184283 0.144528 0.0287442 5.85016 -3.30549 -0.174148 0.081171 -0.0704501
251 1 0.125293 0.144038 0.025554 5.95911 -3.33077 0.135584 0.0392424 0.00732526
253 1 0.156369 0.143306 0.00352794 1.96152 -3.33289 -0.0363232 -0.0493098 -0.0506447
1770 1 0.127249 0.121916 0.0497152 0.292279 -3.29597 0.0652045 0.142999 0.0280359
174 1 0.183937 0.118956 0.00316835 4.90824 -3.34137 -0.0985414 0.121817 0.00210847
180 1 0.208404 0.121132 0.0285612 5.50798 -3.24871 -0.124302 0.0656337 0.128229
184 1 0.249177 0.127089 0.0274551 1.57203 -3.227 0.00956905 -0.0105311 -0.131376
183 1 0.274383 0.10416 0.0241454 1.8887 -3.19099 0.00742098 0.0856871 0.0408643
1782 1 0.275573 0.127761 0.0492744 1.09513 -3.2254 -0.180726 0.0851255 -0.0474395
188 1 0.292724 0.130911 0.0199443 6.24771 -3.31815 0.0969311 -0.0525649 0.221357
1785 1 0.295366 0.101741 0.0495734 1.53809 -3.22113 0.186308 -0.01558 0.107446
187 1 0.317742 0.103954 0.0223828 5.2763 -3.37903 -0.156058 0.137498 0.10994
192 1 0.347518 0.126063 0.0250435 0.112104 -3.33586 -0.0182885 0.0433812 0.0101898
186 1 0.323493 0.127076 0.998502 0.36515 -3.32377 -0.157506 -0.0130329 0.157858
271 1 0.37775 0.148 0.0281342 0.158856 -3.31392 0.00572232 0.0417989 -0.0133195
189 1 0.348019 0.102095 0.00154279 0.242659 -3.31517 0.0347834 0.00979518 -0.106163
191 1 0.374232 0.101872 0.0268844 0.056942 -3.3175 -0.000737924 -0.0314189 -0.00206003
196 1 0.403752 0.123761 0.0290587 0.150381 -3.32949 0.0580796 -0.0531936 0.0110128
273 1 0.406413 0.147139 0.00635513 7.90617 -3.31799 -0.0429458 0.0494554 -0.0608721
193 1 0.40442 0.100988 0.00574997 0.204191 -3.32036 0.149013 -0.0660425 -0.107378
190 1 0.377517 0.123954 0.00379509 0.213488 -3.33435 -0.0263574 0.154001 0.0057939
194 1 0.433963 0.12426 0.00718125 7.04438 -3.31064 -0.228556 -0.100632 -0.132831
200 1 0.460575 0.122854 0.0301807 6.99145 -3.28088 -0.140342 -0.141207 0.0530965
197 1 0.459382 0.10005 0.00687887 10.237 -3.24957 -0.199995 -0.0200816 0.0649959
198 1 0.470537 0.131336 0.998065 9.72479 -3.29319 0.184746 -0.0791103 0.0784529
204 1 0.49606 0.130958 0.0218674 9.62615 -3.29438 0.238039 -0.084936 -0.0373312
208 1 0.543069 0.128733 0.0216239 2.05088 -3.30812 0.121414 -0.0665427 0.156936
207 1 0.571874 0.105715 0.0236309 0.794039 -3.32554 0.00587324 -0.0125249 0.14177
287 1 0.572117 0.14964 0.0242838 1.83938 -3.28826 0.0585167 0.0582194 -0.028064
212 1 0.601378 0.128139 0.0263422 0.246727 -3.3445 -0.0242637 -0.028962 0.000621514
1889 1 0.598505 0.150754 0.0497106 0.454051 -3.30919 -0.048992 0.138779 0.0390587
1809 1 0.597158 0.105547 0.0499858 0.190552 -3.31967 -0.0958278 -0.0937624 -0.0272919
1806 1 0.570174 0.129141 0.0487929 0.444369 -3.30084 -0.0980292 -0.207954 -0.0279454
209 1 0.605232 0.10687 0.00301937 6.52989 -3.30758 0.0101765 -0.0726955 -0.0650042
211 1 0.630756 0.10491 0.0273392 5.69425 -3.34696 -0.0340864 0.0772614 -0.0710522
1813 1 0.655502 0.104333 0.0514355 6.03817 -3.3525 -0.0234112 -0.0428454 0.00798995
210 1 0.633447 0.129909 0.00416224 7.7765 -3.32711 -0.0749997 -0.12953 -0.0537446
215 1 0.673962 0.099128 0.0197087 7.51153 -3.2472 -0.0268772 0.152157 0.00468386
216 1 0.658692 0.129389 0.028028 7.35249 -3.33358 -0.0174451 0.0129254 0.0177144
214 1 0.672451 0.122731 0.995663 6.72675 -3.254 0.142999 -0.09789 0.224859
1893 1 0.65447 0.15292 0.052079 0.131457 -3.31333 0.0509838 -0.0504802 -0.0589729
220 1 0.698397 0.122969 0.0197536 6.86184 -3.25949 -0.0666209 -0.0195589 0.185237
224 1 0.739296 0.120888 0.0213582 5.83239 -3.3166 0.0717104 0.173761 -0.00101568
1901 1 0.741663 0.144831 0.0458159 7.50892 -3.25533 0.168642 -0.0729549 -0.0281584
223 1 0.769733 0.0997473 0.0221974 1.49377 -3.31243 -0.107348 -0.0744567 -0.0456648
228 1 0.796274 0.124128 0.0230496 0.149035 -3.3253 -0.120486 -0.00197603 -0.0642232
303 1 0.765751 0.1465 0.0207069 5.45114 -3.32933 -0.0716974 0.0387279 0.218584
1822 1 0.767869 0.121426 0.0462953 0.442853 -3.30425 -0.0477995 0.0227359 -0.0619278
1905 1 0.793096 0.146398 0.0460141 0.256194 -3.31421 -0.0561162 0.0965047 0.0117685
1825 1 0.797413 0.100231 0.0476343 0.573469 -3.31033 -0.148445 -0.0690902 -0.0898422
222 1 0.768294 0.123092 0.999074 1.85703 -3.31347 -0.0681898 -0.106687 -0.122463
305 1 0.795278 0.147978 0.999404 1.01188 -3.32467 -0.0441894 -0.00653171 -0.0515681
227 1 0.823596 0.101344 0.0239738 0.114571 -3.30277 0.131454 -0.0589189 -0.110058
232 1 0.850173 0.125481 0.0242023 0.090764 -3.33052 -0.0341182 -0.0736745 -0.0903604
1826 1 0.822777 0.124885 0.0475272 0.138076 -3.31475 0.0307353 -0.0193602 -0.0152818
1829 1 0.849442 0.101514 0.0485927 0.269353 -3.32598 0.128913 0.032907 -0.0852154
226 1 0.823714 0.125035 -0.000333227 0.089641 -3.31698 0.0715292 -0.0559606 -0.00208963
235 1 0.931031 0.100253 0.0229706 0.649854 -3.30598 0.0772241 0.0490335 0.122599
231 1 0.875964 0.101109 0.0241269 0.12218 -3.33009 -0.00013647 0.00105043 -0.0504425
236 1 0.903053 0.12456 0.0242391 0.331264 -3.32951 0.00404046 0.0682653 -0.135613
234 1 0.929578 0.123291 0.999738 0.87455 -3.30189 -0.008389 0.156679 0.00680312
315 1 0.92632 0.150361 0.0253231 0.294403 -3.30918 -0.0433132 0.0444247 0.0262669
1830 1 0.876382 0.125541 0.0482885 0.24097 -3.34938 0.0610771 0.0418656 0.0179062
1834 1 0.929091 0.12707 0.0481616 0.0954617 -3.28862 -0.0374995 -0.0143867 0.0630343
233 1 0.902769 0.100337 0.999915 0.154415 -3.32981 -0.114957 0.0421795 -0.087146
240 1 0.953848 0.126195 0.0245165 0.507605 -3.28758 -0.0182636 0.103934 0.0476797
238 1 0.980422 0.128244 0.00206928 0.78837 -3.24109 0.122447 0.133275 -0.0484933
237 1 0.959099 0.100063 0.00117545 1.37804 -3.32458 0.0725882 0.042923 -0.136845
245 1 0.0619486 0.153332 0.00451448 8.87999 -3.24086 0.0663546 0.0153311 -0.186754
243 1 0.0346856 0.154502 0.0253157 7.7039 -3.22958 -0.24778 -0.106923 0.276595
248 1 0.0590971 0.17812 0.0295251 2.29911 -3.24871 -0.133256 -0.0773732 0.017245
244 1 0.00469664 0.176051 0.0246747 1.15934 -3.28529 0.0666835 0.107502 0.11396
1841 1 0.00699674 0.153795 0.0476453 7.65111 -3.29178 0.0187313 -0.126774 0.105465
241 1 0.00505631 0.153879 0.0019384 0.664263 -3.30261 0.156904 -0.0956539 -0.0294137
242 1 0.0341138 0.176785 0.00404257 0.219049 -3.27298 0.136902 0.0256257 0.0546239
252 1 0.110248 0.173219 0.0327057 6.60825 -3.28279 -0.208381 0.0335392 -0.0237516
246 1 0.0890221 0.175921 0.0072238 7.77349 -3.28351 -0.184291 -0.140375 -0.0304026
327 1 0.086608 0.19954 0.0332381 0.509449 -3.29129 0.111838 -0.00776456 0.00216119
329 1 0.11419 0.198729 0.00977087 6.82756 -3.23239 0.0454805 -0.0808811 -0.119192
256 1 0.156161 0.16694 0.0271447 7.72489 -3.35825 -0.111949 0.159399 0.027322
250 1 0.12638 0.166803 0.00222222 6.6417 -3.33349 0.296058 0.0161336 0.0739304
335 1 0.174012 0.197535 0.0230299 5.18319 -3.2642 0.12951 0.0743256 0.163333
333 1 0.149762 0.193327 0.999918 9.02154 -3.29088 0.0679531 0.13043 -0.0560292
331 1 0.137898 0.196199 0.0338415 5.62229 -3.25508 0.0165546 -0.0683815 -0.0230743
259 1 0.224898 0.150982 0.0264188 0.680714 -3.2335 0.0704777 0.0644079 -0.107343
1861 1 0.249261 0.150672 0.0508786 0.27185 -3.28421 -0.022523 0.0150576 0.0432688
260 1 0.199552 0.174344 0.0248905 0.421108 -3.24674 0.0591733 -0.0474523 0.0957924
264 1 0.24015 0.179886 0.0200614 6.88118 -3.32572 -0.0780194 -0.0384964 0.00460276
1858 1 0.224031 0.175051 0.0503295 0.275729 -3.27563 0.108529 -0.121188 -0.125416
1937 1 0.199208 0.198614 0.0482433 5.26718 -3.29159 -0.0324872 0.0400278 -0.00943526
263 1 0.26592 0.155244 0.0208258 6.65392 -3.33816 0.0363594 0.0221449 0.0255761
1862 1 0.265452 0.179184 0.0448297 6.78377 -3.33706 -0.0515209 0.117501 -0.0101898
268 1 0.29708 0.17721 0.023311 0.146283 -3.31191 0.0646093 -0.06901 -0.0278386
1865 1 0.292322 0.155308 0.0448682 6.80954 -3.30926 -0.0215543 -0.0876152 0.132084
262 1 0.270584 0.177499 0.998238 0.251717 -3.30982 0.0797584 -0.0661866 0.0171633
345 1 0.302386 0.198815 0.00177519 0.364006 -3.29559 -0.0406734 0.0623764 -0.0195907
267 1 0.323128 0.151829 0.0231594 0.148811 -3.30737 -0.164816 -0.116675 0.115262
272 1 0.352527 0.17305 0.0269736 0.160444 -3.30504 -0.00607032 0.133386 0.0238927
347 1 0.328509 0.198871 0.0270263 0.43917 -3.31037 -0.110736 0.0692352 0.00487814
266 1 0.327327 0.173066 0.000836175 0.361895 -3.31034 -0.0651254 0.165973 -0.0290539
349 1 0.355989 0.196956 0.00383036 8.37921 -3.32328 -0.0703432 -0.0754439 -0.0138982
276 1 0.40762 0.171425 0.0300099 7.31219 -3.31489 -0.182086 0.0238993 -0.0582775
275 1 0.432964 0.14631 0.0312945 7.33344 -3.30618 0.113462 0.187602 -0.206771
355 1 0.417377 0.205313 0.0212758 6.7488 -3.31711 0.160548 -0.15306 0.173411
351 1 0.380827 0.195898 0.0301753 8.15343 -3.32191 -0.0385047 0.17821 -0.254462
280 1 0.443569 0.180448 0.0229561 7.3974 -3.33819 0.247895 0.0782509 -0.0128591
279 1 0.468758 0.15568 0.0218276 6.71404 -3.26397 -0.0287148 -0.355021 0.184677
1881 1 0.493637 0.157045 0.0462667 9.40659 -3.20786 0.0706492 -0.104149 -0.0753992
284 1 0.495305 0.177928 0.0223686 1.64639 -3.25657 0.186994 0.141105 0.0754556
1878 1 0.469926 0.182101 0.0474263 7.06567 -3.29305 -0.0182362 -0.0210504 0.174468
277 1 0.442386 0.155495 0.999012 6.83391 -3.27087 0.145379 -0.0608811 0.110727
283 1 0.523234 0.155741 0.0236026 5.62776 -3.29033 0.0199491 -0.0930292 -0.0849609
1882 1 0.522957 0.178527 0.0460053 6.03424 -3.24171 -0.0493358 -0.183599 0.119887
288 1 0.554169 0.176642 0.0226874 7.20276 -3.30696 -0.108508 0.04147 0.0956426
1885 1 0.545132 0.152786 0.0493283 0.815192 -3.2082 -0.249649 -0.100166 -0.0307886
291 1 0.628301 0.152607 0.0278551 0.155271 -3.32182 0.0133538 -0.0420415 -0.0540724
292 1 0.595938 0.174349 0.026567 5.6748 -3.34121 0.0627228 0.122618 0.077301
290 1 0.626415 0.177148 0.00493348 1.44821 -3.32017 -0.142822 -0.0817817 -0.130801
371 1 0.620957 0.198421 0.0279593 5.63174 -3.32071 0.0244866 0.0616107 -0.0355318
1886 1 0.569763 0.174729 0.0516963 6.14071 -3.21969 0.162314 0.11724 -0.132355
1890 1 0.624341 0.17501 0.050626 0.298776 -3.32377 0.0362789 0.129115 0.0641128
1969 1 0.594032 0.19787 0.0517903 6.05881 -3.27452 0.0177483 0.00863864 -0.0471091
295 1 0.68255 0.155054 0.028676 7.40215 -3.29903 -0.00572482 -0.207874 -0.108137
296 1 0.654096 0.177723 0.0286459 0.336036 -3.32381 -0.0522417 0.0359848 -0.0443293
293 1 0.65683 0.155217 0.00471921 7.51092 -3.29205 0.0726353 -0.189658 0.0464737
294 1 0.68074 0.1804 0.00391454 7.76639 -3.28238 0.0279989 -0.0464386 -0.00277836
1973 1 0.650968 0.200128 0.0513929 0.380176 -3.33926 -0.0595667 -0.0461874 0.0394437
300 1 0.706486 0.180179 0.0280181 7.10101 -3.30038 0.0552672 0.105435 -0.0613319
299 1 0.719019 0.149125 0.0176773 8.90851 -3.29036 0.120524 0.139176 0.0313149
304 1 0.743165 0.173692 0.0184757 7.14052 -3.29191 -0.000112237 -0.000234329 -0.00115703
308 1 0.792657 0.171428 0.0214905 0.555502 -3.32016 -0.00521354 0.00924911 0.0318089
1985 1 0.791526 0.194994 0.045561 7.9367 -3.27477 0.0575503 -0.0288068 0.0640145
1902 1 0.766334 0.170148 0.0447834 8.16267 -3.26954 0.11945 0.0118938 0.157989
307 1 0.822582 0.148708 0.0233709 0.155216 -3.3348 -0.123791 -0.037297 -0.0127704
312 1 0.848847 0.173139 0.0239575 0.247012 -3.33879 -0.0386289 -0.0390212 -0.0242788
1906 1 0.818736 0.171219 0.0464095 0.213204 -3.32974 -0.00111589 0.0717377 0.0273016
387 1 0.819917 0.195891 0.0223918 0.278646 -3.30604 -0.149408 -0.0715338 0.128885
1989 1 0.844649 0.196328 0.0482986 0.143974 -3.30111 -0.124733 0.0226032 -0.13957
306 1 0.821941 0.172677 -0.000221993 0.549413 -3.31722 -0.00460596 -0.0518539 -0.033934
1909 1 0.848676 0.149468 0.0480918 0.189687 -3.34349 0.0205726 -0.0971255 -0.103843
309 1 0.850083 0.149002 0.000214817 0.0992363 -3.32292 0.00416144 0.00717742 -0.0795204
311 1 0.876667 0.149364 0.024101 0.274358 -3.33409 -0.0268273 -0.0378194 -0.00407897
391 1 0.872832 0.198543 0.0258743 0.498917 -3.30169 -0.0127298 -0.0037975 -0.170417
310 1 0.876759 0.172902 0.000233591 0.562417 -3.3289 -0.102404 0.0176471 -0.019113
316 1 0.89955 0.175119 0.0261089 0.517123 -3.29829 0.0805802 -0.102875 -0.0842705
314 1 0.924759 0.17467 0.00153618 0.402123 -3.30226 0.0480049 0.0183175 -0.0190932
393 1 0.898682 0.199514 0.00133386 0.42536 -3.29016 0.0395806 -0.115435 -0.0940719
395 1 0.923628 0.199724 0.0252325 0.281259 -3.28491 0.195633 -0.00157567 -0.0506631
1914 1 0.926281 0.175255 0.0503876 0.359199 -3.30968 0.060646 0.0116776 -0.117472
317 1 0.951505 0.150164 0.00146426 0.544433 -3.29714 0.0648393 0.0982687 -0.05088
319 1 0.977688 0.151799 0.024485 0.475572 -3.29963 0.198627 0.133519 0.0349403
320 1 0.950081 0.175386 0.025231 0.286304 -3.30969 0.13166 0.0960376 0.000765126
318 1 0.976316 0.175868 0.00156605 0.782137 -3.33173 0.167824 -0.0319406 0.0135391
399 1 0.977493 0.199669 0.0249697 1.15975 -3.32921 0.115077 -0.0263226 -0.00652369
1918 1 0.978532 0.176851 0.0472903 1.23674 -3.29519 0.00839414 -0.0630044 0.136009
1997 1 0.950341 0.200182 0.0482859 1.49512 -3.30071 0.118501 -0.00488245 -0.0678476
321 1 0.00646913 0.198865 0.00342928 0.57374 -3.29764 0.0488302 0.0888682 0.00355936
323 1 0.0301966 0.201492 0.0289327 0.393248 -3.34896 -0.0643749 -0.0114634 0.0163533
328 1 0.0588347 0.22402 0.0317474 0.119962 -3.32062 0.059015 -0.0530143 -0.0119607
322 1 0.031595 0.224002 0.00727698 0.739014 -3.34499 0.127329 0.0290519 -0.0209841
325 1 0.0611819 0.200107 0.0080417 0.191756 -3.32381 0.0650773 0.0961625 -0.00204018
403 1 0.0316721 0.248535 0.0306173 0.13549 -3.3226 0.0663719 -0.0779183 0.0444477
405 1 0.0624392 0.246348 0.00990722 6.33595 -3.34495 0.0840822 -0.0215493 -0.052923
401 1 0.00433076 0.248599 0.00665007 1.48181 -3.33525 0.0771526 -0.0283547 -0.125606
332 1 0.115711 0.221765 0.0371171 6.82579 -3.28731 -0.219561 -0.0360893 -0.168229
407 1 0.0892727 0.245917 0.0347576 6.52689 -3.35687 0.0312503 -0.0141733 0.0301065
409 1 0.106281 0.250823 0.00659737 0.937577 -3.27723 -0.0123327 -0.0119254 -0.138133
326 1 0.0897464 0.222507 0.0118744 6.35455 -3.30547 0.0184342 0.146687 -0.0614763
336 1 0.154796 0.225599 0.0330011 6.716 -3.23063 0.115022 -0.0543867 -0.0935592
411 1 0.13071 0.250749 0.0309347 0.500861 -3.28207 0.146706 -0.0629191 0.0801902
330 1 0.131901 0.226326 0.00862369 7.79448 -3.21873 -0.0658276 -0.13203 -0.0169196
339 1 0.214624 0.203801 0.018818 6.94322 -3.28017 -0.0308654 -0.103562 -0.0892808
340 1 0.190938 0.22783 0.021244 4.6071 -3.27808 -0.0958459 0.0622468 -0.0551135
419 1 0.217135 0.251874 0.0205237 5.27238 -3.31744 0.0612861 -0.0375195 0.204223
1938 1 0.216082 0.22811 0.0454792 4.83989 -3.27729 -0.196803 0.171397 0.0563148
344 1 0.242324 0.226516 0.0215127 0.671479 -3.31134 0.307034 0.0248174 -0.0955296
2021 1 0.242487 0.2523 0.0460839 1.0697 -3.3168 -0.00998722 -0.02307 0.016079