ITEM: TIMESTEP
2250
ITEM: NUMBER OF ATOMS
32000
ITEM: BOX BOUNDS pp pp pp
9.0761557558453365e-01 8.0092384424410312e+01
-3.2759686721680481e-01 8.1327596867211639e+01
-3.2749793105956115e-01 8.1327497931054239e+01
ITEM: ATOMS id type xs ys zs c_csym c_peratom fx fy fz
8 1 0.0497005 0.0250587 0.0249496 0.0144759 -3.36158 0.0553969 0.0237497 0.0367426
83 1 0.0246021 0.0499622 0.0250846 0.0122219 -3.35571 0.101225 0.0501291 0.0206299
1602 1 0.0245198 0.0252986 0.0502057 0.02739 -3.35929 0.109916 -0.0609759 -0.0358996
1605 1 0.0497306 0.000249994 0.0501678 0.0123382 -3.36196 0.0205559 -0.0592675 -0.0239522
1685 1 0.0498748 0.0500417 0.0497571 0.0258466 -3.35916 -0.0167584 -0.0440916 0.0841584
5 1 0.049953 0.000252689 0.000317673 0.0263703 -3.34892 -0.0132803 -0.0288617 -0.0560408
85 1 0.0498789 0.0498358 -2.82777e-05 0.00724336 -3.36598 0.065573 0.0190654 0.0811902
12 1 0.100181 0.0251718 0.0250492 0.0207576 -3.36071 -0.0053133 -0.0984311 0.0256413
87 1 0.0753866 0.0498153 0.0252921 0.0528856 -3.35285 -0.147284 -0.0457733 -0.145848
1606 1 0.074806 0.0248662 0.0501576 0.0149509 -3.36444 0.0406353 0.0138968 -0.0285918
1689 1 0.100001 0.0498657 0.0502314 0.0158032 -3.36351 0.0473729 -0.00404491 0.0377388
1609 1 0.100307 -0.000175165 0.0502131 0.0260109 -3.36003 -0.13135 0.020009 0.00367095
89 1 0.100402 0.0498456 -0.000198235 0.0401817 -3.35031 -0.101438 0.0199111 0.0554153
16 1 0.150198 0.0254542 0.0251793 0.0635286 -3.35374 -0.0263066 -0.127546 0.0291453
91 1 0.124896 0.0500828 0.024882 0.0131093 -3.35896 0.0218529 0.0225441 0.0530998
1610 1 0.125077 0.0247955 0.0500973 0.0127184 -3.35855 -0.0141967 0.0566669 -0.0124412
1693 1 0.149749 0.0499116 0.0500593 0.0191558 -3.35637 0.0507199 0.0534094 0.00876146
93 1 0.149977 0.0497641 -9.28881e-05 0.0308758 -3.36067 0.00527139 0.135898 -0.00551152
1613 1 0.150389 -0.000171273 0.0500228 0.0188234 -3.35279 -0.0849982 0.030881 0.000878387
10 1 0.125683 0.0248673 0.000184736 0.0759958 -3.35373 -0.135757 0.0167775 -0.0425105
20 1 0.200124 0.0249232 0.0248358 0.0201888 -3.36113 -0.0626443 0.00378979 0.0988758
95 1 0.175039 0.0503717 0.0252238 0.0416353 -3.35093 -0.0031849 -0.125619 -0.0414578
1614 1 0.175053 0.025021 0.050028 0.00681011 -3.35959 0.0453214 -0.00851039 -0.0123576
1697 1 0.199885 0.0498455 0.0504555 0.0348016 -3.35769 0.100764 0.0189207 -0.113281
14 1 0.174805 0.0247824 0.000162936 0.0235009 -3.36466 0.040916 -0.00441871 -0.0744316
17 1 0.200153 -0.000275827 8.86784e-05 0.00932702 -3.35809 -0.0594014 0.0460218 -0.0790284
24 1 0.249959 0.0247989 0.0249441 0.011 -3.3485 0.0331016 0.025893 0.0401814
99 1 0.225106 0.0495525 0.0250195 0.0144606 -3.35856 -0.0385551 0.0873064 0.0385684
1618 1 0.225099 0.0251304 0.0502705 0.032235 -3.35829 -0.0321686 -0.0496729 -0.0706095
1621 1 0.249984 1.74162e-05 0.0501466 0.0125005 -3.35887 0.0129192 -0.0602897 -0.0622449
1701 1 0.25043 0.0497473 0.0497253 0.0344743 -3.36387 -0.0541728 0.0693158 0.0731506
18 1 0.225085 0.0245824 0.000189719 0.020115 -3.35041 -0.0686744 0.0761498 -0.10857
101 1 0.249794 0.0498017 -0.000131345 0.0128617 -3.35388 0.0399448 0.0170694 0.0275067
21 1 0.249683 -0.000121469 6.82364e-06 0.0182565 -3.3498 0.0980902 -0.0397003 -0.0511678
28 1 0.300069 0.0248901 0.0253056 0.0272386 -3.35256 -0.0540778 -0.0336038 -0.0635746
103 1 0.275309 0.0499929 0.0246818 0.0404642 -3.3558 -0.0747273 -0.0140851 0.0927676
1622 1 0.274956 0.0245806 0.0498995 0.01349 -3.35272 0.0222368 0.0566766 -0.00216802
1705 1 0.299707 0.0499112 0.0501281 0.0135496 -3.35845 0.0936514 -0.0217302 0.005439
1625 1 0.299298 -0.000506759 0.0498882 0.059729 -3.35668 0.109202 0.0475969 0.0112933
32 1 0.349995 0.0252523 0.0250987 0.0364313 -3.35986 0.027428 -0.089536 -0.0313424
107 1 0.324818 0.0500045 0.0252838 0.0141062 -3.35953 0.0247636 0.0443095 -0.0307054
1626 1 0.324903 0.0246216 0.0500035 0.0132288 -3.35413 -0.0344833 0.0670255 0.0430093
1709 1 0.349823 0.050157 0.0499084 0.0168827 -3.3652 0.0119694 -0.00978714 0.0691318
1629 1 0.349756 -0.000260672 0.0498003 0.0171571 -3.35427 0.0471453 0.00405961 0.078845
36 1 0.39973 0.0254613 0.0247048 0.0602538 -3.35815 0.0641638 -0.114224 0.0703077
111 1 0.375158 0.0504283 0.0251607 0.0287304 -3.35295 -0.0763611 -0.0770673 -0.0121758
1630 1 0.374698 0.0245808 0.0500796 0.0605322 -3.35652 0.0506998 0.129525 -0.076285
1713 1 0.399863 0.0500682 0.0499974 0.00647944 -3.36014 0.00141765 -0.0369083 0.00859325
31 1 0.374867 -0.000458374 0.0249502 0.0444288 -3.35849 -0.014937 0.14542 -0.0258498
1633 1 0.400133 0.000320743 0.0494957 0.0554992 -3.3649 -0.0314819 -0.109278 0.102881
40 1 0.450327 0.0250636 0.0249808 0.0206712 -3.36377 -0.0170322 0.0368575 -0.0211985
115 1 0.424964 0.0503844 0.0247714 0.0205085 -3.3615 0.0106142 -0.0688727 0.0444942
1634 1 0.42525 0.0251196 0.0496518 0.0184879 -3.36368 -0.0419936 0.0148926 0.0225854
1717 1 0.449784 0.0505079 0.0497122 0.0350222 -3.35503 0.0195998 -0.0938556 0.0137325
38 1 0.475261 0.0252928 -0.000313714 0.0280358 -3.35301 -0.0351049 -0.0527632 0.121978
44 1 0.499763 0.0254941 0.0252664 0.054688 -3.36504 0.0705701 -0.0718616 -0.0904957
119 1 0.475108 0.050571 0.0250939 0.0416316 -3.35249 -0.0752668 -0.136825 -0.0404397
123 1 0.525079 0.0499971 0.0246556 0.0191165 -3.35383 -0.0171598 -0.0120541 0.0857619
1638 1 0.474845 0.0254381 0.0501709 0.0333073 -3.35772 0.0338065 -0.0200354 -0.0853798
1642 1 0.524894 0.0249323 0.0501045 0.0188134 -3.36188 0.0671292 0.0107511 -0.0585814
1721 1 0.500365 0.0505437 0.0499918 0.0718942 -3.35321 -0.106915 -0.110309 -0.00615823
121 1 0.499986 0.0500928 -9.46714e-05 0.00931558 -3.35228 0.0206883 -0.0199552 -0.0223219
48 1 0.550053 0.0251044 0.0247316 0.0227825 -3.36092 0.00207711 0.0121191 0.100236
125 1 0.549628 0.0498943 -0.000574565 0.0406346 -3.35446 0.13696 0.0141441 0.0729645
127 1 0.575165 0.0498292 0.0252771 0.0286396 -3.36077 -0.0920173 0.0103325 -0.0711389
1646 1 0.574835 0.0247417 0.0503455 0.019621 -3.34764 -0.0215339 0.0930829 -0.0865149
1725 1 0.549943 0.0501083 0.050116 0.0140293 -3.36813 -0.0106186 -0.0341561 -0.00383796
1645 1 0.550317 -0.000142908 0.0498635 0.0327683 -3.35403 -0.120721 0.0278968 0.013347
52 1 0.59987 0.0249701 0.0254319 0.0213108 -3.36238 0.0594241 0.0103854 -0.0549421
131 1 0.625116 0.0500317 0.0249978 0.0184112 -3.35835 -0.0924772 -0.0239001 0.0753831
1650 1 0.624766 0.0248786 0.050328 0.0239857 -3.36127 0.0374116 0.0694544 -0.00149279
1729 1 0.599729 0.0501462 0.0505831 0.0463717 -3.35704 0.0670094 -0.0358848 -0.100685
1649 1 0.599723 9.80282e-07 0.0502205 0.0158945 -3.35999 0.0687586 -0.062403 -0.0266716
51 1 0.625241 -5.02065e-05 0.0251771 0.0164175 -3.36087 -0.0837178 -0.00118499 -0.0159903
56 1 0.649636 0.0250337 0.0255192 0.0716508 -3.34697 0.0426936 -0.0484741 -0.116706
135 1 0.675029 0.0493711 0.0248 0.0466206 -3.35822 -0.00341602 0.0962103 0.132149
1654 1 0.674595 0.024393 0.0497619 0.0858654 -3.35362 0.115391 0.183555 0.0856486
1733 1 0.650076 0.0500688 0.0502528 0.0271082 -3.36016 0.00736023 -0.0576576 -0.0968295
60 1 0.700027 0.0246146 0.0251103 0.0199756 -3.36271 -0.00246587 0.0722216 -0.0516993
139 1 0.725335 0.0499352 0.0248625 0.0170813 -3.36745 -0.0557835 -0.0801453 -0.0226228
1658 1 0.725099 0.0250127 0.0497353 0.0174227 -3.36299 -0.00668385 -0.0424526 0.0101394
1737 1 0.700142 0.0496885 0.0499055 0.0174262 -3.35981 -0.076888 0.00443964 -0.0554881
59 1 0.724585 -0.000185509 0.0248415 0.0355258 -3.35455 0.160538 0.0529821 0.067098
64 1 0.750595 0.0247194 0.0245658 0.0853935 -3.36893 -0.126247 0.0686739 0.0331005
143 1 0.775285 0.0504017 0.0249852 0.0429003 -3.34692 -0.088129 -0.133546 -0.0528535
1662 1 0.774777 0.0248226 0.0501751 0.0423443 -3.35822 0.083595 0.00166822 -0.0715686
1741 1 0.750487 0.0498764 0.0497928 0.0486841 -3.35134 -0.110129 0.00480804 0.00305116
63 1 0.775261 -0.000362192 0.0248452 0.0455203 -3.3545 -0.0913689 0.0975283 -0.0109484
61 1 0.749841 0.000311646 -0.000509385 0.0565643 -3.3614 0.0708179 -0.0755952 0.12794
1661 1 0.749779 -5.50522e-05 0.0495501 0.0419151 -3.35998 0.00505171 -0.0163935 0.027694
141 1 0.749994 0.0503562 -0.000238729 0.024335 -3.35472 0.0446432 -0.105369 0.0604353
68 1 0.799994 0.0250708 0.0249254 0.0118529 -3.36557 -0.0132397 -0.00435328 0.0919192
147 1 0.825172 0.050181 0.0247066 0.0188895 -3.35427 -0.0717654 -0.0157255 0.0924494
1666 1 0.825386 0.0250748 0.0498033 0.0401229 -3.36395 -0.14328 -0.00167412 0.0100411
1745 1 0.799734 0.0500628 0.0499562 0.0209863 -3.36466 0.124417 -0.0164198 -0.00191806
1665 1 0.799839 -0.000246966 0.0502243 0.0265955 -3.35344 0.0319789 0.11079 -0.0924836
67 1 0.825003 0.000109587 0.0250812 0.0100262 -3.35763 -0.0305191 -0.0404064 0.0254241
71 1 0.875063 -0.000166688 0.0248947 0.00583484 -3.3608 0.00304572 0.0297229 0.0671162
72 1 0.85004 0.0250593 0.0248857 0.0107008 -3.34925 0.0101718 -0.0747167 0.0130481
151 1 0.874908 0.0496139 0.025071 0.0294122 -3.36042 0.0718763 0.0897893 -0.020686
1670 1 0.874738 0.0252665 0.0499664 0.0325173 -3.35553 0.04805 -0.111291 -0.0353976
1749 1 0.849773 0.0501871 0.0498305 0.023408 -3.35146 0.0239178 -0.0283691 0.060241
1669 1 0.850194 -0.000128724 0.0500871 0.022706 -3.36042 -0.0213044 0.0184088 -0.00801073
70 1 0.874845 0.0245724 -0.000349531 0.0362945 -3.35611 0.0626468 0.0571308 0.0695241
74 1 0.925184 0.0251482 3.17102e-05 0.0221054 -3.36301 -0.00506606 -0.0520386 -0.0969626
76 1 0.900226 0.024795 0.0248798 0.0179882 -3.35964 -0.0862 0.0483523 0.0149247
155 1 0.925167 0.049817 0.0250581 0.0131386 -3.35143 -0.0848957 0.0476414 0.00226752
1674 1 0.925001 0.0250384 0.0500414 0.00743793 -3.35285 0.00629457 -0.031386 -0.0221921
1753 1 0.899943 0.0499716 0.0500397 0.00821262 -3.36058 -0.013169 0.0369217 -0.0453071
153 1 0.899812 0.0498752 -0.000101874 0.0180186 -3.35969 0.0341005 -0.0570056 0.0335354
4 1 0.999552 0.0252494 0.025052 0.0412308 -3.3592 0.0541335 -0.136035 0.0394261
1681 1 0.999799 0.0498886 0.0503095 0.0228873 -3.35404 -0.00633861 0.0829171 -0.0649474
78 1 0.974906 0.0251047 2.02414e-06 0.0208278 -3.36331 -0.00785336 -0.0628487 0.0201852
80 1 0.949741 0.0247214 0.0251026 0.0295341 -3.35447 0.115435 0.0300284 -0.013316
159 1 0.974844 0.0500987 0.0251523 0.013232 -3.35117 0.00804953 -0.0747871 0.0599572
1678 1 0.975015 0.0245559 0.0503974 0.0500553 -3.35576 -0.00266591 0.12288 -0.131844
1757 1 0.950043 0.0496542 0.0498653 0.0367587 -3.36205 -0.00666135 0.0487078 0.114462
79 1 0.9748 -0.000196277 0.025278 0.020989 -3.34915 0.0177072 0.0964277 -0.0195832
157 1 0.950247 0.05032 0.000352897 0.0348042 -3.35428 -0.105893 -0.0743539 -0.0778616
1677 1 0.949999 2.63498e-05 0.050207 0.0166119 -3.3511 -0.0570787 -0.0318644 -0.0818229
88 1 0.0500605 0.0750019 0.0252384 0.0186433 -3.35684 -0.0524616 -0.0213429 -0.12643
163 1 0.0249386 0.100175 0.0248489 0.0102005 -3.36156 -0.0118488 -0.0764524 0.0313156
1682 1 0.0249661 0.0752318 0.0500184 0.00902774 -3.36497 -0.0279326 -0.0163367 -0.00798038
1765 1 0.0502443 0.100187 0.0497578 0.0313146 -3.35122 -0.0928245 -0.0249932 0.0890081
92 1 0.0994946 0.0747054 0.0249406 0.0546375 -3.34506 0.13213 0.0668422 -0.000664891
167 1 0.0750211 0.100282 0.025414 0.0510374 -3.34809 -0.0131658 -0.0624286 -0.138826
1686 1 0.0749159 0.0746621 0.0497541 0.0436692 -3.34571 0.0466477 0.0876814 0.141917
1769 1 0.0999831 0.0998599 0.0500458 0.0165178 -3.36059 -0.0337362 0.0198565 0.0596679
169 1 0.0997018 0.100127 0.000179038 0.0227105 -3.36 0.0443416 -0.0325398 -0.0270847
86 1 0.0749612 0.0749262 0.000122138 0.00982613 -3.36635 -0.0133736 -0.0332486 -0.0224691
96 1 0.149934 0.0750414 0.0251279 0.00847813 -3.35326 -0.0533273 -0.0434645 -0.040431
171 1 0.124773 0.0994839 0.0251027 0.0534158 -3.3545 -0.00182154 0.12984 -0.0282581
173 1 0.149704 0.100175 0.000267288 0.0192132 -3.35696 0.0632042 -0.0504134 -0.0261455
1690 1 0.124787 0.0751161 0.0500715 0.0163228 -3.35796 0.0122307 -0.0819927 0.00167804
1773 1 0.149899 0.0999476 0.0499356 0.00524309 -3.35897 -0.00219963 -0.0115659 0.0263518
90 1 0.124752 0.0750836 -0.000240369 0.0215993 -3.36489 0.0632236 -0.0297289 0.0574072
100 1 0.200177 0.0747027 0.0248792 0.0283126 -3.35502 0.0247819 0.0468698 0.0552429
175 1 0.175024 0.0999803 0.0252374 0.00999038 -3.35199 0.00372111 0.020471 -0.0733046
1694 1 0.174992 0.0747567 0.0499722 0.0176301 -3.35785 -0.0137893 0.0486052 0.0836216
1777 1 0.200007 0.0994336 0.0498436 0.0421737 -3.36162 0.0825558 0.0913183 0.0213802
104 1 0.250208 0.0748412 0.0249027 0.0074868 -3.3562 -0.0124773 -0.0383597 0.0348867
179 1 0.225564 0.0996978 0.0250589 0.0318294 -3.3603 -0.110369 0.0525876 -0.0385523
1698 1 0.225207 0.0747362 0.050057 0.012187 -3.36617 -0.0177819 -0.0248481 0.0157837
1781 1 0.250225 0.0997839 0.0501067 0.0159983 -3.34765 -0.0127156 0.0363336 -0.0395993
98 1 0.224847 0.0745283 6.09716e-05 0.015259 -3.36111 0.0223108 0.0893664 -0.0266477
108 1 0.299936 0.0752789 0.0249976 0.0251538 -3.35533 0.0241994 -0.0718967 -0.012564
183 1 0.274986 0.100132 0.0250279 0.0172487 -3.35735 0.0763769 -0.0214087 0.00674683
1702 1 0.275276 0.074949 0.0501493 0.0207595 -3.34766 -0.0672059 -0.023264 -0.0723324
1785 1 0.300125 0.0999134 0.0498962 0.0184022 -3.35362 0.0180875 0.059894 0.0231815
102 1 0.274987 0.074983 6.97188e-05 0.00744311 -3.35229 0.0224858 -0.0523551 -0.0275426
185 1 0.300252 0.0998655 -0.000335697 0.0317309 -3.35408 -0.0720212 0.0472648 0.102743
106 1 0.324979 0.0748198 0.000183965 0.0282146 -3.36242 0.00408505 0.0178491 -0.0583319
112 1 0.350122 0.0753189 0.025022 0.0180924 -3.35718 -0.0570099 -0.043586 0.000789014
187 1 0.324975 0.100146 0.0245802 0.0315628 -3.35793 0.0319797 -0.0217295 0.0947487
1706 1 0.324836 0.0752973 0.0501335 0.0172828 -3.36649 0.0236034 -0.0925471 0.0239159
1789 1 0.349813 0.0999536 0.0504165 0.0371948 -3.35451 0.0105901 0.0310087 -0.067561
189 1 0.349996 0.100077 -0.000413806 0.0185239 -3.35664 -0.054136 -0.062504 0.056605
116 1 0.399863 0.0753854 0.0250864 0.00994031 -3.34886 0.00417588 -0.0146253 0.00131878
191 1 0.374647 0.100299 0.0251504 0.0325436 -3.35616 0.0919102 -0.0489127 -0.0430885
1710 1 0.374939 0.075222 0.0501606 0.00931803 -3.35412 0.00057496 -0.0521787 0.0120618
1793 1 0.399981 0.10012 0.0499815 0.0104788 -3.36168 -0.00414221 0.0236756 0.0310454
193 1 0.399999 0.100128 -0.000135385 0.00926583 -3.35419 -0.0257396 -0.0158138 0.0290897
120 1 0.449737 0.0753493 0.0245825 0.0297108 -3.35709 0.0453411 -0.0355117 0.0230048
195 1 0.424908 0.0999986 0.0247165 0.00902097 -3.36084 0.0222694 0.0719259 0.0391297
1714 1 0.424803 0.0752168 0.0501762 0.0245626 -3.3538 0.0109653 0.0202368 -0.0779523
1797 1 0.450194 0.100022 0.0495631 0.0287756 -3.36089 -0.055656 0.0161751 0.0800978
197 1 0.449928 0.100154 -0.000467935 0.0177119 -3.35591 0.0165775 -0.0696439 0.0906682
114 1 0.424756 0.0750216 -0.000181095 0.0155295 -3.35674 0.0952416 0.014104 -0.0308659
124 1 0.499778 0.0749661 0.0247558 0.0226652 -3.34332 0.0842006 0.0687803 0.0145137
199 1 0.475131 0.100139 0.0247344 0.0116474 -3.35704 -0.0613567 -0.022559 0.00574644
203 1 0.524922 0.0999079 0.0248385 0.0163536 -3.36257 0.0151481 0.0639958 0.0140794
1718 1 0.474969 0.0749976 0.04971 0.0207271 -3.35153 0.000313085 0.0769659 0.0704129
1722 1 0.525163 0.0752778 0.0497717 0.0337235 -3.35828 -0.00134215 -0.0264626 0.0383433
1801 1 0.499873 0.100083 0.0498095 0.00748446 -3.36019 -0.0033153 -0.00944246 0.0405552
118 1 0.474816 0.0748031 -0.000282833 0.0289605 -3.35471 0.0344987 0.111071 0.0438628
122 1 0.524608 0.074985 -0.000208439 0.0128795 -3.34841 0.0273596 0.022236 -0.0105646
128 1 0.549714 0.0747965 0.0246097 0.0296356 -3.36074 0.0958443 0.0464093 0.0375637
207 1 0.575089 0.0997964 0.0247078 0.0171904 -3.35689 -0.0904716 0.0292638 0.0341586
1726 1 0.574968 0.0750692 0.0498576 0.0201917 -3.35498 -0.0402892 -0.0233451 0.100404
1805 1 0.550559 0.10011 0.0500522 0.0563648 -3.35485 -0.0833979 -0.0448063 -0.0682546
130 1 0.625126 0.0749064 0.000147965 0.00860861 -3.36408 -0.0469933 -0.0191518 -0.054763
132 1 0.599981 0.0749764 0.0251786 0.0131267 -3.35381 0.0373044 -0.0582305 -0.0562278
211 1 0.624965 0.0998568 0.0249956 0.00647294 -3.35543 -0.0464543 0.000752611 -0.0243321
1730 1 0.625134 0.0748527 0.0500401 0.00701299 -3.35521 -0.0154469 0.0315152 -0.0236782
1809 1 0.599867 0.0998569 0.0499762 0.0169098 -3.35646 0.0376307 0.0309956 -0.00326159
136 1 0.650233 0.0748317 0.0247048 0.0208911 -3.35893 -0.011997 -0.0235162 0.0721778
215 1 0.674897 0.0998016 0.0247242 0.0187751 -3.35391 0.0488975 0.0292962 0.0178159
1734 1 0.675139 0.0750544 0.0498108 0.0133706 -3.35972 -0.0342404 -0.0421432 -5.78505e-05
1813 1 0.649949 0.0999049 0.0496902 0.0119574 -3.35689 0.036254 -0.0483697 0.0816751
140 1 0.699908 0.0746498 0.0252829 0.0486618 -3.35434 0.0105049 0.02228 -0.124
219 1 0.724714 0.0996699 0.0252056 0.049931 -3.35175 0.0606842 0.032815 -0.178677
1738 1 0.725155 0.0746902 0.0496401 0.0337785 -3.34527 -0.0414401 0.0464421 0.0818022
1817 1 0.700073 0.100108 0.0494926 0.0311405 -3.35251 -0.0395648 -0.0491333 0.132347
144 1 0.749987 0.0750891 0.0248228 0.00921143 -3.35468 0.0211849 0.0121221 -0.0282853
223 1 0.775058 0.100329 0.0248657 0.0326005 -3.35359 -0.034803 -0.107441 0.0140907
1742 1 0.774921 0.0751785 0.049631 0.0240711 -3.35369 0.0232785 0.00651723 0.107323
1821 1 0.749742 0.0998628 0.0499212 0.0231989 -3.36106 0.089117 0.0765122 0.0290302
148 1 0.800023 0.0748879 0.0249487 0.0138478 -3.35617 0.0230286 0.0852506 0.00448556
227 1 0.824841 0.100025 0.0252212 0.0152023 -3.35758 0.037575 -0.0254564 0.0428368
1746 1 0.825051 0.0752238 0.0499814 0.0189912 -3.36601 -0.0708325 -0.0243048 0.00550342
1825 1 0.799508 0.100192 0.0501291 0.0548853 -3.35739 0.171432 -0.0663984 -0.0128652
152 1 0.850259 0.075116 0.0251519 0.0209558 -3.35647 -0.0544669 0.00530218 -0.0165776
231 1 0.874963 0.100013 0.0251693 0.00649206 -3.3504 -0.0439779 -0.0177887 -0.0479953
1750 1 0.874696 0.0750604 0.0504734 0.0469179 -3.35837 0.0899753 -0.052898 -0.0803598
1829 1 0.850186 0.100248 0.0503279 0.0325868 -3.34951 -0.108628 -0.0645498 -0.0386505
156 1 0.900008 0.0747831 0.0251183 0.0136434 -3.36178 -0.0288709 -0.00970609 0.0524586
235 1 0.924839 0.0998076 0.0248904 0.0162388 -3.35896 0.0258076 0.0126848 0.0583193
1754 1 0.924913 0.0749414 0.0503336 0.0169901 -3.35583 -0.0289487 -0.0147126 -0.0880298
1833 1 0.899667 0.10008 0.0497766 0.0232511 -3.35562 0.0558558 -0.0245831 0.0762941
84 1 0.999784 0.0749982 0.0250827 0.00555836 -3.35815 0.0772688 0.043608 0.0132337
1761 1 0.999786 0.100203 0.0497533 0.0199366 -3.36768 0.0148506 0.0209102 0.0172412
160 1 0.949925 0.0748775 0.0256802 0.0623533 -3.34716 -0.0533917 0.070479 -0.140942
239 1 0.974708 0.0997924 0.0247004 0.0470447 -3.35571 0.0140121 0.0948314 0.141109
1758 1 0.974789 0.0751693 0.0500362 0.0116929 -3.35215 0.0195621 -0.0299997 0.00731218
1837 1 0.949744 0.1001 0.0504053 0.0388358 -3.35733 0.061438 0.0186509 -0.115601
161 1 0.999658 0.100157 -0.000186743 0.0247063 -3.3508 0.0866375 -0.070494 0.0302075
237 1 0.949786 0.100072 3.0253e-05 0.0134414 -3.36262 0.0393477 -0.0596526 -0.0367083
162 1 0.0248365 0.124577 -0.000139588 0.0399539 -3.36211 0.0192306 0.140677 -0.0434797
168 1 0.0501167 0.12496 0.0248415 0.00998927 -3.35327 -0.0135065 0.0325609 0.00544791
243 1 0.0251017 0.149588 0.0247425 0.049221 -3.3604 -0.0317141 0.0657915 0.0192105
1762 1 0.0252481 0.12486 0.0502366 0.0427365 -3.36296 -0.0994511 0.0313822 -0.0816048
1845 1 0.0497635 0.150057 0.0500134 0.0175335 -3.35767 0.0728841 -0.0269406 -0.0198046
245 1 0.0500829 0.150145 8.29274e-07 0.0136319 -3.35539 -0.0999409 -0.0131111 -0.0124352
172 1 0.0999585 0.124869 0.0251513 0.0187417 -3.36119 0.00557291 0.0867408 -0.0466597
247 1 0.0748392 0.150246 0.0247822 0.0213802 -3.36506 0.0265339 -0.029967 0.113089
249 1 0.09989 0.15031 7.10332e-05 0.0177699 -3.35645 0.0396582 -0.0572805 0.0387236
1766 1 0.0751137 0.125428 0.0500508 0.0262418 -3.35312 -0.00284859 -0.0202669 -0.0105997
1849 1 0.100044 0.150333 0.0501663 0.0158435 -3.35647 -0.0253904 -0.0546244 -0.0704731
166 1 0.0750321 0.12514 -0.00014038 0.012798 -3.35416 -0.0237843 -0.038623 0.0760046
170 1 0.125099 0.125134 0.000110705 0.0166982 -3.35823 -0.0734619 0.0160294 0.0433656
176 1 0.149893 0.125063 0.0252488 0.0179498 -3.35836 0.0254073 -0.0935196 -0.0391644
251 1 0.124973 0.149917 0.0250135 0.0131206 -3.35333 -0.0253025 0.043413 0.0242198
1770 1 0.124805 0.125238 0.049856 0.0286642 -3.35923 0.0257489 -0.0769162 0.0507488
1853 1 0.150276 0.149833 0.0498292 0.0189726 -3.35361 -0.066208 0.0282561 0.0686963
253 1 0.15029 0.149989 0.000577879 0.0434153 -3.35408 -0.0836423 -0.0104322 -0.155566
180 1 0.200099 0.124868 0.0248131 0.0116155 -3.36916 0.0454437 -0.0155658 0.0784368
255 1 0.175097 0.149733 0.0251821 0.0174277 -3.34976 0.06057 0.0255823 -0.0456659
1774 1 0.175308 0.124592 0.050022 0.0366208 -3.34999 -0.0209378 0.0781911 -0.0423036
1857 1 0.199845 0.150094 0.049934 0.0158563 -3.3567 0.085487 -0.0886311 0.00422484
184 1 0.250298 0.124975 0.0249765 0.00828415 -3.35806 -0.0696798 -0.00918602 0.00659824
259 1 0.224941 0.149969 0.0248895 0.0109037 -3.36015 0.0529967 -0.0467076 0.0584956
1778 1 0.22536 0.124872 0.0499193 0.0163507 -3.36913 -0.11092 0.0193108 -0.00715321
1861 1 0.25004 0.149887 0.0500497 0.00825543 -3.36058 -0.0415877 0.006026 0.00579842
188 1 0.300274 0.125283 0.0252065 0.0309421 -3.35668 -0.0449021 -0.108086 -0.0203703
263 1 0.275013 0.149788 0.0251812 0.0143827 -3.34882 0.0605101 -0.0148651 0.0278276
1782 1 0.275265 0.124808 0.0503831 0.0279299 -3.35714 0.00833042 0.0675523 -0.118103
1865 1 0.300368 0.150223 0.0501568 0.0296522 -3.36085 -0.0510704 -0.0902613 0.0111498
182 1 0.275296 0.124859 9.69586e-05 0.00850451 -3.3597 0.00381376 0.00626913 -0.040883
192 1 0.349973 0.124786 0.0249622 0.010466 -3.35199 -0.0308623 0.0452993 -0.0325683
267 1 0.325354 0.150033 0.0247473 0.0216987 -3.34731 0.0513068 -0.0340802 0.046774
1786 1 0.325204 0.125144 0.049836 0.0168481 -3.35278 -0.0510964 -0.00680205 0.0203635
1869 1 0.350295 0.149868 0.0501263 0.0157717 -3.35411 -0.0565775 0.0532298 -0.0445645
186 1 0.324944 0.124989 -0.00035035 0.0158716 -3.35573 0.0615474 -0.0120443 0.0705951
196 1 0.400019 0.125085 0.0247141 0.0157911 -3.36365 0.009544 -0.0583573 0.0455367
271 1 0.374845 0.149398 0.0248791 0.0411108 -3.36054 0.0442403 0.117825 0.0044408
1790 1 0.374914 0.124842 0.0502549 0.0216787 -3.36048 0.0354078 -0.0109899 -0.00422845
1873 1 0.400159 0.14966 0.0500006 0.0112457 -3.35509 -0.0155374 0.0384271 -0.0404328
190 1 0.374678 0.124709 -0.000383338 0.0424819 -3.35188 0.0615087 0.0645675 0.071916
200 1 0.450182 0.125125 0.0248767 0.0108101 -3.35542 -0.0478523 -0.0431193 -0.0166785
275 1 0.425092 0.149915 0.0249512 0.0131074 -3.3615 -0.00117146 0.00827541 -0.0537015
1794 1 0.425235 0.124965 0.0499654 0.0139518 -3.36094 -0.0485161 -0.0116548 -0.0275092
1877 1 0.449926 0.150258 0.0496878 0.0233316 -3.35781 0.0460286 -0.0372148 0.044065
277 1 0.450422 0.149675 7.4789e-05 0.0532223 -3.35261 -0.129183 0.0787667 -0.101756
204 1 0.499891 0.125253 0.0252852 0.0508523 -3.3601 0.0796994 -0.0103709 -0.102934
279 1 0.475246 0.15029 0.0245988 0.0297747 -3.35764 0.0151351 -0.0602084 0.0793514
283 1 0.52489 0.150048 0.024992 0.0103724 -3.36254 0.0286264 -0.0661749 -0.0183022
1798 1 0.474843 0.125294 0.0498561 0.013729 -3.35685 0.0432042 -0.0124441 0.0271082
1802 1 0.525233 0.124857 0.0500832 0.0200612 -3.35775 -0.0542986 0.0465954 -0.0694642
1881 1 0.500057 0.150179 0.0500737 0.0125521 -3.35673 0.022133 -0.0593877 0.0180284
208 1 0.549812 0.124775 0.0247738 0.0214521 -3.36391 0.000372466 0.0289536 0.0387154
285 1 0.550069 0.149749 -0.000264587 0.0132877 -3.35134 -0.0438294 0.0360765 0.0302994
287 1 0.574643 0.149827 0.0248126 0.0173396 -3.35123 0.0185389 0.0260373 0.00919628
1806 1 0.575176 0.125216 0.049872 0.0163108 -3.35301 -0.0444573 -0.0594594 -0.00783478
1885 1 0.549986 0.150249 0.0500598 0.0243059 -3.35453 0.0094464 -0.0607658 -0.0563471
212 1 0.599823 0.125167 0.0249864 0.0232235 -3.36028 0.0476666 -0.111009 -0.0542811
291 1 0.62475 0.150153 0.0248969 0.026418 -3.35275 0.0631555 -0.102675 0.0125702
1810 1 0.625049 0.124699 0.0499191 0.0163819 -3.3522 -0.0476576 0.0724163 -0.0164439
1889 1 0.600047 0.14988 0.0495988 0.02499 -3.35014 -0.0171477 0.023609 0.115651
214 1 0.674748 0.125206 -0.000115958 0.013856 -3.35539 0.004791 -0.0220119 -0.0116837
216 1 0.649954 0.124899 0.0250982 0.00920923 -3.35442 -0.0221658 0.0248508 -0.0635868
293 1 0.649677 0.150024 0.000142027 0.0204628 -3.35711 0.019186 -0.0457534 -0.0781211
295 1 0.674773 0.150016 0.0249589 0.00883326 -3.35709 0.0796634 -0.05751 -0.0172985
1814 1 0.674954 0.124829 0.0499815 0.00971394 -3.35812 0.0468654 0.0455685 -0.0400991
1893 1 0.649995 0.149643 0.0499095 0.0191353 -3.35862 -0.0709301 0.0978561 0.03425
220 1 0.699829 0.124764 0.0246501 0.0226682 -3.35904 -0.0154768 0.110877 0.0243215
299 1 0.724575 0.150194 0.0248817 0.0435557 -3.3653 0.0902661 -0.0607879 0.00899907
1818 1 0.724862 0.125095 0.0495346 0.0279595 -3.35324 0.0455742 0.0326433 0.0836696
1897 1 0.699853 0.150114 0.0499417 0.0135445 -3.35811 0.00300029 -0.0874604 -0.0249267
224 1 0.749708 0.124621 0.02491 0.0335187 -3.36031 0.0423552 0.115406 0.0286144
303 1 0.775131 0.150079 0.0248385 0.0106602 -3.35854 0.001784 -0.0930059 0.0183491
1822 1 0.775103 0.1251 0.050261 0.0203505 -3.35495 -0.0684653 0.000833024 -0.0945898
1901 1 0.750217 0.149962 0.0496877 0.0272293 -3.37066 -0.094326 0.0432535 0.0297119
228 1 0.800137 0.124785 0.0252269 0.028821 -3.35957 -0.0221793 0.122897 -0.0214044
307 1 0.82499 0.150078 0.0249746 0.00413387 -3.36138 0.028985 -0.0198449 -0.0479031
1826 1 0.825315 0.125224 0.0503967 0.0381897 -3.35981 -0.074986 -0.0326141 -0.0722895
1905 1 0.800107 0.150328 0.0499308 0.0232055 -3.35581 -0.0151751 -0.0864004 0.0153415
232 1 0.849699 0.125009 0.0249301 0.0270204 -3.36087 0.0560401 0.0270751 -0.0282497
311 1 0.875075 0.150243 0.0252713 0.0456519 -3.35958 -0.0136408 -0.054447 -0.16604
1830 1 0.874637 0.124982 0.0497358 0.0410844 -3.34736 0.112621 0.0771646 0.100502
1909 1 0.850164 0.150221 0.0499502 0.0177402 -3.348 -0.094902 -0.0316517 0.01479
236 1 0.899764 0.124933 0.0248196 0.0138723 -3.35802 0.080122 0.0749393 0.0145784
313 1 0.900297 0.150107 -0.000347512 0.0337889 -3.35729 -0.0780784 -0.0576256 0.124263
315 1 0.925333 0.149961 0.0248375 0.0187519 -3.36104 -0.0593781 -0.00209321 -0.0301787
1834 1 0.924732 0.124842 0.0498489 0.0137734 -3.36044 0.0223326 0.027443 0.0381858
1913 1 0.900061 0.149889 0.0498707 0.017765 -3.35562 -0.0246689 -0.000226372 0.0579884
164 1 0.999818 0.124951 0.0246704 0.0214348 -3.35079 0.0478969 0.000656512 0.0947662
1841 1 0.999976 0.149961 0.049728 0.025401 -3.35781 0.0727175 0.0133102 0.0687778
238 1 0.975018 0.125132 5.90206e-05 0.0183097 -3.35735 -0.0665035 -0.0231473 -0.0702184
240 1 0.950002 0.124758 0.0250853 0.0210912 -3.36343 0.0199381 0.0673929 0.00137565
319 1 0.975257 0.150097 0.0248077 0.0206771 -3.35167 -0.111666 -0.00626019 0.0507833
1838 1 0.97514 0.125561 0.0500362 0.0745157 -3.35626 -0.0556678 -0.201102 -0.0782113
1917 1 0.949852 0.149945 0.0500186 0.0217472 -3.35634 0.0561281 0.0114359 -0.0203426
241 1 0.999977 0.15032 -9.12217e-05 0.0253888 -3.35285 0.0573517 -0.113002 0.000164207
317 1 0.950021 0.150101 -0.000170624 0.00787395 -3.35953 -0.0805152 -0.0323422 0.045608
248 1 0.0494461 0.175181 0.0250765 0.0477155 -3.36106 0.0926645 -0.0134474 -0.00664265
323 1 0.0248424 0.200381 0.0251402 0.02122 -3.36464 0.0282839 -0.0698783 -0.00641407
325 1 0.0500017 0.200023 -6.88931e-05 0.0234518 -3.35936 -0.012445 0.0768298 0.0555879
1842 1 0.0252134 0.174802 0.0501224 0.0316862 -3.35434 -0.0806837 0.0337941 -0.0319378
1925 1 0.0501955 0.200093 0.0500818 0.0236836 -3.35029 -0.114806 -0.0530395 -0.0574346
246 1 0.0747567 0.175185 0.000262928 0.0178018 -3.3494 0.041249 -0.0158255 -0.0625064
252 1 0.100119 0.174933 0.0249984 0.0184048 -3.36505 -0.0111574 0.071211 0.0839489
327 1 0.0748318 0.200066 0.0249791 0.00786465 -3.35933 0.0135349 -0.018406 0.0196929
1846 1 0.0749012 0.175087 0.0501421 0.0113399 -3.35574 0.0257216 -0.0137952 -0.114723
1929 1 0.0998343 0.20048 0.050156 0.0419731 -3.36003 0.0564717 -0.143868 -0.0803998
250 1 0.12546 0.17499 0.000218828 0.029286 -3.35881 -0.0411769 0.0155753 -0.00594396
256 1 0.150077 0.174957 0.0254076 0.0192247 -3.35198 -0.0118597 0.0336055 -0.0736984
331 1 0.125235 0.200128 0.0251188 0.0112721 -3.36436 -0.0297759 -0.0254709 0.0361063
1850 1 0.125065 0.175055 0.0502631 0.00953907 -3.36327 0.0035476 0.0352519 -0.051634
1933 1 0.150224 0.199997 0.0502747 0.0113187 -3.3545 -0.0810544 -0.0170045 -0.00863337
333 1 0.150131 0.200272 2.09822e-05 0.0321767 -3.36531 0.0328025 -0.0575524 0.0292051
260 1 0.200031 0.175167 0.0248908 0.0245695 -3.35981 0.000656909 0.00350857 0.0454031
335 1 0.174885 0.199884 0.025225 0.0248345 -3.36147 0.08949 0.00995427 -0.054205
1854 1 0.175172 0.174883 0.0498546 0.021498 -3.35559 -0.00232805 0.081137 0.080059
1937 1 0.20019 0.200171 0.0505368 0.035887 -3.36063 -0.0218037 -0.0695734 -0.0553324
337 1 0.200104 0.199881 -0.000231202 0.0433868 -3.3652 -0.000256857 -0.013805 0.113333
264 1 0.250248 0.174785 0.02492 0.0175149 -3.34591 -0.0781532 0.00259191 0.117555
339 1 0.225225 0.199866 0.0252795 0.0110164 -3.35517 -0.066892 -0.0392371 -0.0303603
1858 1 0.224819 0.174894 0.0500013 0.0132272 -3.36523 0.0634211 -0.0160048 0.0473505
1941 1 0.249964 0.199577 0.0503136 0.00961247 -3.36176 0.0193274 0.00989304 0.0226365
341 1 0.250012 0.19955 0.000172792 0.015541 -3.35972 -0.0129874 0.107172 -0.0240653
258 1 0.225231 0.174797 0.00016597 0.0135911 -3.34749 -0.00745518 0.0788418 -0.0116018
268 1 0.300364 0.174459 0.0251421 0.0382381 -3.36002 -0.0661662 0.135366 -0.0279245
343 1 0.275156 0.199694 0.0251324 0.00895221 -3.35565 -0.0053068 -0.0274736 -0.0129188
1862 1 0.274901 0.174532 0.0501615 0.0166515 -3.35787 0.0352401 0.0652486 -0.0113935
1945 1 0.299724 0.19972 0.0501514 0.0231239 -3.35938 0.139128 -0.0267588 -0.00129105
262 1 0.274855 0.174621 0.000321648 0.0236376 -3.35594 0.146889 0.0522597 -0.062967
272 1 0.350035 0.174683 0.0247493 0.0234225 -3.36595 0.0818974 0.0485015 0.0118429
347 1 0.325024 0.199881 0.0250333 0.0121456 -3.3566 -0.0012887 0.00894473 0.0537441