ITEM: TIMESTEP
4500
ITEM: NUMBER OF ATOMS
32000
ITEM: BOX BOUNDS pp pp pp
1.8189492324124519e+00 7.9181050767582391e+01
-6.5857502100170251e-01 8.1658575020996267e+01
-6.5951224109235085e-01 8.1659512241087270e+01
ITEM: ATOMS id type xs ys zs c_csym c_peratom fx fy fz
8 1 0.050366 0.0250924 0.0250761 0.0146336 -3.35109 -0.0718424 0.00841897 -0.0368853
83 1 0.0249542 0.0498931 0.0247331 0.0101572 -3.36073 0.0232033 0.00305589 -0.0190439
1602 1 0.0253231 0.0250507 0.0497594 0.0178588 -3.35478 -0.0713896 6.86281e-05 -0.0029657
1685 1 0.0504448 0.0501213 0.0498119 0.0255727 -3.35342 -0.0707483 -0.000400945 -0.0310157
1681 1 2.68078e-05 0.0499221 0.0498723 0.0106177 -3.34227 0.0772876 -0.0122817 -0.0461947
81 1 -0.000270091 0.0498102 -0.000341477 0.0282011 -3.35516 0.0645979 0.0354267 0.0969728
5 1 0.0503406 0.000433643 0.000166399 0.0480375 -3.35117 -0.107364 -0.175467 -0.0136963
3 1 0.0251427 -0.000221037 0.0252728 0.0294246 -3.35246 0.0375131 0.0583516 -0.0301666
2 1 0.0252215 0.0248037 -1.87977e-05 0.013459 -3.34356 0.0260879 0.113306 0.0509182
12 1 0.100067 0.0251231 0.0253404 0.0298755 -3.34993 0.0964446 -0.0223769 -0.0674739
87 1 0.0754897 0.0496807 0.0244959 0.0630526 -3.34273 -0.0906494 0.102065 0.0957286
1606 1 0.0749379 0.0252803 0.0501643 0.027417 -3.34484 0.0412543 -0.0445673 -0.00242868
1689 1 0.100176 0.0500226 0.0496312 0.0213236 -3.35214 -0.00705213 0.0247007 0.0879685
6 1 0.0754878 0.0246473 1.1381e-05 0.0372737 -3.34138 -0.0513407 0.125442 -0.0519735
1609 1 0.100238 0.000236799 0.0502867 0.0162548 -3.35581 -0.0705211 -0.0280969 -0.0424946
7 1 0.0751639 0.000312925 0.0249645 0.0177947 -3.33918 0.041256 -0.0738841 0.100087
16 1 0.150145 0.0250971 0.02483 0.00591467 -3.35831 -0.0202873 -0.0167988 0.038687
91 1 0.125116 0.0502591 0.0249689 0.0121354 -3.35298 -0.0349582 -0.0636239 -0.0187
1610 1 0.125401 0.0252769 0.0500307 0.0203878 -3.34275 -0.0569908 -0.034812 -0.0595098
1693 1 0.150243 0.050116 0.0497941 0.00658152 -3.34682 0.0134582 0.00153773 0.00645104
93 1 0.150108 0.0500939 -7.89145e-05 0.00788556 -3.35724 0.0489967 -0.0356659 -0.0128418
10 1 0.125094 0.0250893 -0.000164556 0.0110214 -3.35443 -0.0152384 0.0158456 0.0724994
20 1 0.20067 0.0251158 0.0251282 0.0583127 -3.3559 -0.115981 -0.050847 -0.0365709
95 1 0.175475 0.049916 0.0250585 0.0294087 -3.35266 -0.0912123 0.0181067 -0.0523123
1614 1 0.175095 0.024849 0.0498234 0.0181035 -3.35868 0.0226415 0.0169403 0.0353468
1697 1 0.199955 0.0503112 0.0501177 0.0338962 -3.35269 0.0908566 -0.109406 -0.0148006
97 1 0.199923 0.0496964 2.63072e-05 0.036254 -3.35117 0.0727128 0.0716047 0.00389714
15 1 0.175164 -1.27572e-05 0.0250401 0.00514581 -3.35732 -0.0347003 0.0364873 0.00304123
14 1 0.174938 0.0250449 -2.65079e-05 0.0139845 -3.35076 0.0299704 -0.00759131 0.0321137
24 1 0.249998 0.0248314 0.0246527 0.0280337 -3.35129 0.00703976 0.0636268 0.0698895
99 1 0.225442 0.0498893 0.024989 0.0323914 -3.34885 -0.111681 0.0222599 -0.0145853
1618 1 0.225012 0.0248557 0.0500647 0.0155927 -3.34578 -0.0159711 0.0863903 0.0128676
1701 1 0.249738 0.049787 0.0498198 0.0394337 -3.35683 0.0912294 0.0708069 0.0641059
103 1 0.275261 0.0499674 0.0251416 0.0213041 -3.36 -0.0709749 0.0167096 -0.0230312
1622 1 0.275055 0.0251777 0.0501787 0.0240259 -3.35088 -0.0175308 -0.0567877 -0.0406509
19 1 0.225097 -0.000361592 0.0250665 0.0315183 -3.34581 0.00633743 0.0871171 -0.0333163
22 1 0.275203 0.0249965 -0.000194565 0.0167441 -3.35044 -0.0303595 0.0309206 0.0403222
28 1 0.299863 0.0250185 0.025264 0.0231574 -3.34468 0.0544525 0.061752 -0.099004
1705 1 0.300261 0.0500673 0.0499559 0.0146291 -3.34202 -0.0230856 0.0578368 0.0513937
107 1 0.324844 0.0506461 0.025163 0.0414966 -3.34179 -0.0222346 -0.158027 -0.0849836
1626 1 0.324877 0.025212 0.0498794 0.0112555 -3.35088 0.102526 -0.0322088 0.0669007
105 1 0.299743 0.0500946 -0.000218295 0.0311462 -3.35693 0.0722321 -0.0259479 0.0827185
26 1 0.325064 0.0253866 0.000149512 0.0191759 -3.35957 -0.0467545 -0.00728413 0.0309422
32 1 0.349726 0.0253355 0.0251423 0.0170223 -3.35433 0.0467307 -0.00185614 -0.0706251
1709 1 0.349812 0.0506484 0.0497071 0.0600088 -3.35204 0.015336 -0.117514 0.125083
111 1 0.375139 0.0500859 0.0250618 0.0210141 -3.351 -0.0368209 0.0209096 -0.00415371
1630 1 0.374657 0.0250489 0.0497925 0.0320492 -3.35545 0.0338808 0.0854414 0.0354867
31 1 0.374904 8.24675e-05 0.0251563 0.0125828 -3.3435 0.0299325 0.0581493 -0.00098743
36 1 0.400157 0.0251171 0.0249774 0.0186944 -3.35817 -0.0185178 0.0212068 0.101096
1713 1 0.400466 0.0502832 0.0500623 0.0422428 -3.35421 -0.115315 -0.13312 -0.0121452
115 1 0.425566 0.0499231 0.0252426 0.0378166 -3.35395 -0.0707071 -0.0206322 -0.0908029
1634 1 0.425311 0.0248755 0.0504036 0.0307946 -3.35318 -0.00344151 0.017849 -0.0978488
113 1 0.399702 0.0503483 0.000106444 0.0592677 -3.35151 0.143194 -0.0235176 -0.0444001
34 1 0.424764 0.025083 0.000341646 0.0348474 -3.35972 0.0440772 0.0291998 -0.0955149
40 1 0.450367 0.0248684 0.025159 0.0241823 -3.34735 -0.100676 0.0473409 0.0109382
1717 1 0.449953 0.0500547 0.0503715 0.0533225 -3.34386 0.0915731 -0.0913221 -0.1616
119 1 0.475387 0.0498961 0.0248607 0.0279072 -3.3525 -0.0960696 0.041884 0.0688771
1638 1 0.474912 0.0247831 0.049656 0.0252657 -3.34783 0.0151588 0.0505571 0.0560019
117 1 0.450396 0.049718 9.98256e-05 0.0328753 -3.35265 -0.106026 7.86163e-05 -0.0207791
1721 1 0.500259 0.0497998 0.0498641 0.0206778 -3.35396 -0.038734 0.0650559 -0.00127939
121 1 0.500143 0.0499418 -0.000311765 0.0241132 -3.35816 -0.020885 0.0460561 -0.00577239
44 1 0.499947 0.0250724 0.0249332 0.0140241 -3.34345 0.0189667 -0.0442071 -0.0632051
123 1 0.52488 0.0500966 0.0246128 0.0223828 -3.34947 0.00302988 -0.0110922 0.0615947
1642 1 0.524886 0.0248633 0.0497644 0.0107246 -3.34072 0.0113573 0.0405675 0.0368007
48 1 0.549548 0.0249129 0.0250514 0.023163 -3.35711 0.0952505 -0.0185867 -0.0489536
1725 1 0.549803 0.0501015 0.0499184 0.0142832 -3.34802 -0.0201935 -0.0304767 -0.00901509
125 1 0.549987 0.0495928 -0.000159266 0.0367511 -3.35531 -0.0122473 0.0883199 -0.00746631
127 1 0.574859 0.0497703 0.0250565 0.0134627 -3.3553 0.023884 0.0295401 -0.0180458
1646 1 0.574865 0.0252245 0.0501765 0.013036 -3.34802 0.0622545 -0.0193546 -0.0928747
52 1 0.600105 0.0249668 0.0249247 0.00983315 -3.35009 -0.0128684 0.0334513 0.0420699
1729 1 0.600218 0.0499881 0.0500564 0.0221602 -3.35522 -0.0915549 0.0539503 -0.0611493
46 1 0.575109 0.0248692 0.00024015 0.0260583 -3.35233 -0.108062 -0.0169468 -0.043698
1649 1 0.599874 0.000304894 0.05008 0.0112099 -3.35353 0.0230526 -0.0342561 0.00249369
47 1 0.574982 4.35366e-05 0.0251346 0.00821924 -3.35453 -0.055206 0.0447871 -0.00874945
131 1 0.624951 0.0503421 0.024606 0.0291052 -3.35069 0.00215221 -0.0586679 0.00467715
1650 1 0.624825 0.0252387 0.0498562 0.0182771 -3.35383 0.0630364 -0.0854753 0.0476613
51 1 0.625068 -7.55521e-05 0.02489 0.0109978 -3.34929 0.0120663 0.0352295 0.0606878
56 1 0.649875 0.0249977 0.0251522 0.0220058 -3.35393 0.031018 0.00127767 -0.0467073
1733 1 0.649759 0.0502026 0.049566 0.0337375 -3.34779 0.0581345 -0.0572579 0.048531
1653 1 0.650157 0.000165881 0.0499422 0.0082317 -3.36076 -0.0557534 0.0140595 0.00480108
135 1 0.674883 0.0501436 0.0251303 0.0224599 -3.35735 0.0448446 0.0311704 -0.0214774
1654 1 0.675325 0.0253308 0.049843 0.0436671 -3.35578 -0.0731147 -0.0488408 0.074905
60 1 0.699715 0.0249963 0.0248309 0.0296984 -3.34502 0.112849 0.0997054 0.0605625
1737 1 0.700202 0.0500661 0.0505087 0.0496524 -3.34997 -0.0572557 -0.0268159 -0.152269
137 1 0.700073 0.0501817 -0.000125873 0.0192338 -3.35267 -0.0143087 -0.0439106 0.0440835
55 1 0.675273 2.32341e-05 0.0252323 0.0290405 -3.34527 -0.131936 -0.00314902 -0.0632868
1657 1 0.699841 -0.000108234 0.0499962 0.0128288 -3.34517 0.0387843 0.0765219 0.0369794
139 1 0.724971 0.049849 0.0250075 0.00818848 -3.35037 0.0164513 -0.0362768 -0.00568295
1658 1 0.724964 0.0249681 0.0498517 0.00733218 -3.35858 -0.0408563 -0.0286859 0.037462
59 1 0.7247 0.000245497 0.0247914 0.0208679 -3.35285 0.0645319 -0.0712238 0.0193478
64 1 0.749888 0.024899 0.0249238 0.00745079 -3.34912 -0.000577176 -0.000565056 -0.0387259
143 1 0.774763 0.049758 0.0249171 0.00955616 -3.35539 0.0196736 0.0408115 0.0388465
1662 1 0.775048 0.0247444 0.0496546 0.0176183 -3.34797 -0.0147337 0.0321411 0.0713101
1741 1 0.750042 0.049796 0.0500912 0.003786 -3.35417 0.0170164 0.00611531 -0.0364717
63 1 0.774924 -0.000125735 0.0250376 0.00931823 -3.35673 -0.00422161 -0.0164531 -0.0477147
1661 1 0.750088 1.69529e-05 0.0497124 0.00926124 -3.35318 -0.0436568 -0.0493925 0.0437005
68 1 0.800126 0.0248501 0.0247875 0.0196441 -3.35281 -0.026895 -0.0091552 0.0193296
147 1 0.82504 0.0500584 0.0251212 0.017016 -3.35084 -0.0301074 -0.0457071 0.0278195
1666 1 0.82491 0.0244685 0.0497237 0.0393531 -3.3591 0.0451248 0.100269 0.0617177
1745 1 0.799774 0.0496742 0.0499579 0.0148404 -3.34484 0.0208714 0.00115492 -0.0610732
1665 1 0.800119 0.000152748 0.049972 0.038538 -3.34837 -0.00866781 -0.0980281 -0.0450572
67 1 0.825257 -0.00033388 0.0247366 0.0333212 -3.35737 -0.0313275 0.0683674 0.0346175
65 1 0.799583 -0.000230692 0.000126201 0.0361198 -3.34915 0.128261 0.0348754 0.00129303
72 1 0.850258 0.0250736 0.0249442 0.017059 -3.34408 -0.0313442 -0.0994944 0.0455606
151 1 0.874969 0.0498143 0.0254304 0.0280428 -3.33955 0.0691428 0.0121968 -0.104526
1670 1 0.875012 0.0249626 0.0501366 0.00945653 -3.34172 -0.0104176 0.035852 0.0110316
1749 1 0.850005 0.0497519 0.0500495 0.0056773 -3.34693 -0.035088 -0.0295835 0.0188663
1669 1 0.850165 5.05414e-05 0.0499913 0.0168891 -3.35991 -0.0523471 -0.0685596 0.0102141
76 1 0.899623 0.0248763 0.0251005 0.0284465 -3.34784 0.0940586 0.0445914 -0.0431394
155 1 0.924937 0.0498215 0.0246168 0.0350172 -3.35095 -0.00894738 0.00327364 0.103777
1674 1 0.925013 0.0249727 0.049861 0.00954807 -3.35699 -0.041185 -0.010666 0.0371685
1753 1 0.900242 0.0501128 0.0499868 0.0237314 -3.35319 0.000325084 -0.0809821 -0.00431609
1673 1 0.899608 0.000117183 0.0500258 0.029895 -3.34673 0.143365 -0.0523603 0.0399831
4 1 0.999971 0.0249887 0.0248814 0.0160813 -3.3588 0.00641555 0.0255948 -0.0169349
78 1 0.974965 0.024917 -0.000351025 0.0319236 -3.35162 -0.0290062 -0.0187868 0.0986991
80 1 0.950181 0.0250483 0.0251125 0.0274222 -3.35145 -0.0491225 -0.0440069 -0.0714428
159 1 0.974597 0.0501025 0.0252043 0.0500721 -3.35102 0.112904 -0.00708781 -0.128427
1678 1 0.975272 0.025193 0.0497347 0.0295424 -3.34596 -0.0596092 -0.103047 0.0577777
1757 1 0.949974 0.0498202 0.0499172 0.0129294 -3.34724 -0.0372274 0.0471248 0.061896
79 1 0.974765 0.000111339 0.024654 0.0355409 -3.35389 0.0674632 -0.00478711 0.0339156
157 1 0.950155 0.0499813 -0.000130475 0.0148989 -3.34899 -0.0313761 -0.0228754 -9.63041e-05
88 1 0.0501892 0.0750577 0.0244943 0.0302909 -3.35779 -0.0111095 -0.0447562 0.0330667
163 1 0.0245343 0.0998679 0.0249664 0.0524074 -3.35461 0.127201 -0.0226165 -0.00769879
1682 1 0.0252874 0.0745272 0.0493867 0.0577669 -3.35232 -0.0458687 0.0305583 0.0853083
1765 1 0.0500476 0.09953 0.0498238 0.0260433 -3.35403 0.0300772 0.063232 -0.0425766
161 1 -7.57782e-05 0.100368 -0.00020721 0.0498266 -3.34364 -0.0227812 -0.143017 0.0728593
165 1 0.0502544 0.100428 -0.000203684 0.0551586 -3.3524 -0.0541216 -0.178765 -0.0245801
92 1 0.0996411 0.0752802 0.0246517 0.0629792 -3.35087 0.117724 -0.0472479 0.0902943
167 1 0.0748054 0.0999979 0.0246348 0.0327026 -3.35394 0.0917662 0.0331725 0.0838758
1686 1 0.0753517 0.0746949 0.0498139 0.0427554 -3.35206 -0.0885217 0.0827921 -0.0563383
1769 1 0.0998196 0.100346 0.0497388 0.0400516 -3.35322 -0.03181 -0.0626766 -0.0438321
169 1 0.100228 0.0994943 -0.000398489 0.0359471 -3.34665 -0.0197281 0.0880214 0.0487124
96 1 0.15008 0.0749228 0.0249235 0.0103588 -3.35907 0.0803926 0.0657047 -0.0267549
171 1 0.124932 0.100186 0.0248525 0.0240316 -3.3511 0.00298509 -0.106359 0.00535184
173 1 0.149995 0.0998791 -2.38448e-05 0.018717 -3.34808 0.0212825 -0.0243297 -0.0404868
1690 1 0.125184 0.0751322 0.0499189 0.0113549 -3.35683 -0.0527543 0.0047248 -0.0788495
1773 1 0.150192 0.100101 0.0496031 0.0120633 -3.34675 0.0180609 -0.0706338 0.010688
90 1 0.125077 0.0747919 0.000190835 0.0260577 -3.34528 0.018584 0.0277268 -0.0855186
100 1 0.199953 0.0750916 0.0250571 0.0306229 -3.34632 0.0480397 -0.0533154 -0.0955483
175 1 0.175457 0.100287 0.0244701 0.0400171 -3.35623 -0.0183381 -0.0585065 0.0869733
1694 1 0.175129 0.0752348 0.049636 0.0256105 -3.34766 -0.0170209 0.00795082 0.0619529
1777 1 0.200618 0.100178 0.0499248 0.0576279 -3.34795 -0.169083 -0.0461801 -0.0173351
94 1 0.175301 0.0750904 -0.000292638 0.0203884 -3.35323 -0.0267229 -0.0635757 0.0739289
177 1 0.200321 0.0997957 -0.000384532 0.0176422 -3.35115 0.0593168 0.038121 0.02025
104 1 0.250239 0.0749898 0.0247582 0.0144104 -3.34511 0.0288349 -0.0180154 0.10398
179 1 0.224998 0.099647 0.0245527 0.0448056 -3.35076 0.080246 0.073046 0.0170194
1698 1 0.225037 0.0750558 0.0496936 0.0149226 -3.34823 0.0404139 -0.0554985 0.0600081
1781 1 0.250108 0.0998557 0.0498758 0.00469527 -3.35815 -0.0159506 0.00379557 -0.0105923
183 1 0.274962 0.100116 0.0247827 0.0114007 -3.33931 0.00557503 -0.0997888 0.0520911
1702 1 0.275155 0.0749849 0.0503233 0.0305881 -3.36414 -0.0218162 0.00620957 -0.100978
98 1 0.225323 0.0743084 3.50365e-05 0.0614651 -3.35825 -0.0579238 0.162259 -0.0855142
108 1 0.300031 0.0753223 0.0249857 0.0151631 -3.35681 -0.0364914 0.0278206 -0.00391016
1785 1 0.29989 0.100416 0.050055 0.0263168 -3.35145 0.0571609 -0.115811 -0.0350976
187 1 0.325421 0.100459 0.0249186 0.0363943 -3.36135 -0.0529645 -0.0945249 0.0587316
1706 1 0.324895 0.0753811 0.0500613 0.0187911 -3.35503 0.0379718 0.0550512 0.04015
185 1 0.299831 0.10032 -5.03247e-05 0.0486893 -3.36441 0.080539 -0.119056 -0.00202698
112 1 0.349849 0.0752982 0.0248965 0.0295432 -3.3478 0.124023 0.0446449 0.033419
1789 1 0.350618 0.100224 0.0503578 0.0536913 -3.36381 -0.116108 -0.0561491 -0.050987
189 1 0.350588 0.100203 2.92313e-06 0.0287771 -3.34283 -0.0994721 -0.0366938 0.0474145
191 1 0.375307 0.100307 0.0251335 0.0164694 -3.35834 -0.0194581 -0.0799424 -0.0340016
1710 1 0.375178 0.0749968 0.0497212 0.0298236 -3.35687 -0.0119983 0.0288675 0.0938993
110 1 0.374952 0.0753263 -0.000430484 0.0532709 -3.34888 0.102718 -0.0202985 0.168593
116 1 0.400236 0.0747444 0.0249943 0.0268003 -3.35301 -0.0366747 0.0665586 -0.0653015
1793 1 0.400408 0.0998166 0.0498376 0.0166469 -3.35287 -0.0285889 0.013965 0.0854778
195 1 0.424837 0.0996901 0.0247141 0.0451026 -3.3477 0.0847626 0.0765799 0.0749794
1714 1 0.425468 0.0747254 0.0498583 0.027624 -3.33603 -0.0439838 0.101641 0.0366937
114 1 0.425299 0.074939 -5.10036e-05 0.0145743 -3.3585 -0.0482329 -0.0269264 -0.0493325
120 1 0.450086 0.0752576 0.0246644 0.0519808 -3.34788 0.0285995 -0.0937681 0.102181
1797 1 0.450117 0.0998466 0.0501099 0.0177829 -3.35231 -0.0220126 0.00233687 -0.108029
199 1 0.475156 0.100044 0.025081 0.0218795 -3.34413 -0.0619281 -0.000325129 0.00806648
1718 1 0.474806 0.0746387 0.0498209 0.0333613 -3.3557 0.046537 0.0589114 0.00248259
1801 1 0.499663 0.100046 0.0502047 0.0178634 -3.34982 0.0370706 -0.0595613 -0.0782321
124 1 0.5 0.0751319 0.0249449 0.00631289 -3.3524 0.014663 -0.0319562 0.037515
118 1 0.474854 0.07486 0.000253074 0.0469232 -3.3429 0.140663 0.041718 -0.0940567
203 1 0.524665 0.10023 0.0250638 0.0154454 -3.35816 0.0610114 -0.0371603 0.0408239
1722 1 0.524968 0.0749037 0.0501717 0.0173458 -3.35769 -0.0282182 0.0279585 -0.102217
122 1 0.524984 0.0753594 0.000174863 0.0254097 -3.34968 -0.0189974 -0.0949026 -0.0631389
128 1 0.549939 0.0748091 0.024656 0.0224612 -3.35553 0.0197901 0.0766852 0.0604016
1805 1 0.549794 0.0999316 0.0499858 0.00390222 -3.35717 -0.042596 0.00426262 -0.0502226
201 1 0.499763 0.100376 0.000251798 0.0261148 -3.34394 -0.00196694 -0.11424 -0.0476579
207 1 0.57515 0.100064 0.0248644 0.0220356 -3.3585 -0.0524335 -0.0706289 -0.0208225
1726 1 0.574558 0.0748367 0.0498576 0.0223352 -3.35945 0.10247 0.0196718 -0.0206697
132 1 0.59979 0.0748302 0.0244428 0.0357501 -3.35893 -0.0160246 0.0335034 0.144843
1809 1 0.599675 0.100197 0.0498979 0.0266032 -3.34726 -0.00628036 -0.135843 -0.0608076
126 1 0.575013 0.0747156 -0.000503513 0.0295044 -3.35141 -0.0208156 0.0535881 0.0936358
211 1 0.624551 0.100032 0.024858 0.0261137 -3.35016 0.0321906 -0.049892 0.00568273
1730 1 0.624895 0.0749723 0.0499409 0.015698 -3.35619 -0.0364858 0.0493223 -0.066641
136 1 0.649786 0.0752253 0.0245388 0.0286998 -3.35575 -0.00676629 -0.0428553 0.0291146
1813 1 0.649968 0.099648 0.0499198 0.0211051 -3.34337 -0.0264304 0.0296859 -0.00710967
215 1 0.674864 0.0996923 0.0249026 0.0204309 -3.35049 0.0348312 0.0651101 -0.00787143
1734 1 0.674767 0.0751609 0.0501088 0.0320668 -3.34532 0.0920602 -0.0882986 -0.0985713
140 1 0.700263 0.0745913 0.0251007 0.0408185 -3.35783 -0.0672181 0.0900866 0.0117683
1817 1 0.699493 0.0999122 0.0499483 0.0423228 -3.35455 0.0781583 -0.0380366 0.0731405
217 1 0.699984 0.0999636 4.23703e-05 0.0111219 -3.36047 0.0372651 -0.0393608 0.00577205
219 1 0.72498 0.0997913 0.0254433 0.0229042 -3.34966 -0.00153911 -0.0198539 -0.0855572
1738 1 0.724998 0.0747429 0.050355 0.0173371 -3.34732 -0.000542707 0.0787432 -0.0414252
144 1 0.749593 0.0749604 0.0251129 0.0297382 -3.35134 0.0977671 -0.0183975 0.0339994
223 1 0.77475 0.0999175 0.0250209 0.0123624 -3.35667 0.0114348 -0.00712723 -0.00405994
1742 1 0.775019 0.0748538 0.0501298 0.00740613 -3.35575 -0.048675 0.0169418 -0.0718115
1821 1 0.750134 0.0999166 0.0503594 0.0151518 -3.3549 -0.021128 -0.0327347 -0.0421118
148 1 0.799647 0.074884 0.0250487 0.015695 -3.35272 0.0517999 0.0128809 0.0345439
227 1 0.824846 0.100129 0.0252649 0.0319984 -3.35093 0.0579817 -0.129973 -0.0316725
1746 1 0.824669 0.0745891 0.0500429 0.0292056 -3.35299 0.0654495 0.106263 -0.0770856
1825 1 0.800014 0.100186 0.0500917 0.0217453 -3.34813 -0.0392092 -0.0606316 -0.0245973
146 1 0.824953 0.0748197 0.000220552 0.00950601 -3.36072 0.0483717 -0.000843806 -0.0275568
152 1 0.850166 0.0746777 0.0251992 0.0117824 -3.35255 -0.0581726 0.0859079 -0.0157198
231 1 0.875191 0.0995825 0.0250345 0.0158635 -3.35076 -0.0264693 0.116473 -0.0286576
1750 1 0.875254 0.074678 0.0502099 0.0205126 -3.34228 -0.0237734 0.0625618 0.00182824
1829 1 0.850293 0.0995856 0.0499267 0.0283258 -3.35886 -0.0529178 0.0428693 0.0393989
229 1 0.849807 0.099898 -5.87434e-06 0.0122578 -3.35405 -0.0560972 -0.0444985 0.0872225
156 1 0.899606 0.0747996 0.024799 0.0518531 -3.34719 0.143572 -0.026343 0.0307389
235 1 0.924497 0.100109 0.02513 0.0701046 -3.34407 0.120768 -0.073694 -0.0258896
1754 1 0.924977 0.0750196 0.0499332 0.00979412 -3.34551 -0.023555 -0.0461707 0.0388618
1833 1 0.900146 0.0997961 0.0499931 0.0117859 -3.3483 -0.0526137 0.0372672 0.0528615
1761 1 1.00005 0.0996222 0.0500725 0.0206618 -3.34158 0.0140513 0.0416544 -0.0873325
84 1 0.999805 0.074776 0.0247114 0.0228929 -3.35746 0.0148404 0.0283764 0.0010307
160 1 0.949542 0.0749388 0.0252415 0.0567229 -3.34967 0.158617 0.00857895 -0.0352288
239 1 0.974989 0.100111 0.0251237 0.0261099 -3.35946 0.0759995 -0.0832221 -0.0296981
1758 1 0.975261 0.0749125 0.0500428 0.0169632 -3.34022 -0.0985395 -0.0195939 -0.0658292
1837 1 0.950082 0.0994202 0.0500648 0.0572266 -3.35489 -0.0268407 0.158272 0.0293185
237 1 0.950294 0.0993515 8.66497e-05 0.0800624 -3.35177 -0.0649997 0.187606 0.0246642
158 1 0.975065 0.0749741 -0.000151884 0.0138043 -3.35114 -0.0095119 -0.018579 0.0571359
162 1 0.0251156 0.124582 0.000100427 0.035963 -3.34932 0.00572671 0.140462 0.000343303
168 1 0.0500029 0.124699 0.0252715 0.0286217 -3.3537 -0.0463107 0.0354092 -0.0279894
243 1 0.0251929 0.150145 0.0254299 0.0273869 -3.34746 0.0146505 -0.0933644 -0.0669762
1762 1 0.0249663 0.124685 0.0504923 0.0421915 -3.34541 0.0545733 0.0133349 -0.1417
1845 1 0.0501959 0.149679 0.0500795 0.026045 -3.34281 0.051103 0.112751 0.0354843
245 1 0.0502369 0.149859 0.000487481 0.032732 -3.35081 -0.110001 -0.00719382 -0.142307
172 1 0.100165 0.125002 0.0247898 0.0140537 -3.36125 -0.050585 0.00520701 -0.00577408
247 1 0.0748892 0.150033 0.0246372 0.0460729 -3.34413 0.135199 -0.0580399 0.124361
1766 1 0.0749478 0.125533 0.0500584 0.104037 -3.34866 0.0390399 -0.193783 -0.0547422
1849 1 0.100312 0.149638 0.0495882 0.0383367 -3.35794 -0.00882373 0.0398427 0.0848662
176 1 0.150103 0.124756 0.0246149 0.0178295 -3.35766 0.0125746 0.127082 -0.0183494
251 1 0.125151 0.150183 0.0247275 0.0250133 -3.35167 0.00776394 -0.135609 -0.0399516
1770 1 0.125346 0.124666 0.0499071 0.0437133 -3.33841 -0.102073 0.1132 -0.065103
1853 1 0.149894 0.150077 0.049523 0.0306039 -3.35025 0.0629698 -0.0333907 0.0460995
253 1 0.149815 0.150147 -0.000517584 0.0361834 -3.3525 0.0976918 -0.11556 0.122046
180 1 0.200643 0.125045 0.0248242 0.037545 -3.34992 -0.118199 -0.0270178 -0.0541761
255 1 0.175239 0.149968 0.0246719 0.0161498 -3.36238 -0.0769184 -0.0462369 -0.0273303
1774 1 0.175131 0.125075 0.0495398 0.0116794 -3.34719 -0.0140053 -0.0789666 0.0032486
1857 1 0.199584 0.14998 0.0501264 0.073499 -3.34348 0.198942 0.00321976 -0.0637955
174 1 0.175079 0.124825 -0.000561579 0.0233152 -3.36286 0.0101677 0.0928004 0.0766255
184 1 0.250168 0.124892 0.0248299 0.00608071 -3.34818 -0.0661325 -0.0181565 0.00215807
259 1 0.225207 0.149633 0.0251655 0.0236326 -3.35869 0.00634486 0.0976863 -0.045455
1778 1 0.225183 0.124894 0.0499066 0.00908439 -3.34256 0.018192 0.0103059 0.00638034
1861 1 0.250054 0.149565 0.0501863 0.0172023 -3.3458 0.00583261 0.0555703 -0.0277607
263 1 0.27519 0.149645 0.0252586 0.0262036 -3.35236 -0.000831161 0.0811532 -0.0888299
1782 1 0.274936 0.124888 0.0498556 0.0125118 -3.34064 -0.0429957 0.0076277 0.106398
178 1 0.225468 0.124968 -0.000274749 0.0113499 -3.35757 -0.0408201 -0.0347178 0.00730397
261 1 0.250347 0.150129 -0.000308118 0.0468204 -3.34665 -0.0341209 -0.0627847 0.136694
188 1 0.299784 0.124613 0.0251138 0.0539625 -3.33957 0.0982044 0.102318 -0.0612159
1865 1 0.299923 0.149746 0.0500191 0.0110863 -3.35578 -0.00745797 0.0762503 0.0383706
267 1 0.324905 0.149891 0.0251194 0.02692 -3.35075 0.0261841 0.0443072 0.0384583
1786 1 0.32527 0.125227 0.0499623 0.0292611 -3.35178 -0.0336309 -0.0831926 0.0448648
186 1 0.325624 0.125064 0.000391304 0.0514376 -3.34905 -0.087781 -0.0399484 -0.0676072
192 1 0.350253 0.125301 0.0253381 0.0192071 -3.33785 0.0411036 -0.0646128 -0.0308725
1869 1 0.350398 0.149959 0.0499427 0.0174938 -3.35347 -0.0520839 0.0341833 0.0777875
271 1 0.374839 0.150015 0.025168 0.032706 -3.3468 0.143183 0.0179316 -0.0878529
1790 1 0.37545 0.125121 0.0503784 0.0271643 -3.34598 -0.0380986 -0.0526192 -0.0135012
190 1 0.374837 0.125501 9.59137e-05 0.0499937 -3.35569 0.145734 -0.0130164 0.0134934
196 1 0.399978 0.12521 0.0251817 0.0265695 -3.34984 0.0297172 -0.0287537 -0.0577506
1873 1 0.40037 0.149845 0.0498727 0.0232245 -3.34627 -0.0314127 0.0136651 0.0305124
275 1 0.425034 0.149842 0.0248758 0.00962722 -3.34394 -0.00389011 0.0492312 0.0462569
1794 1 0.425284 0.124795 0.0500679 0.0159765 -3.35458 -0.0569679 -0.00507345 0.00846341
273 1 0.400567 0.150183 -0.000205414 0.054746 -3.35811 -0.121104 -0.0858867 0.0526014
194 1 0.424969 0.124843 0.000153349 0.0403667 -3.34903 0.0411768 -0.00161737 -0.131662
200 1 0.449637 0.124838 0.0246783 0.032458 -3.35254 0.0958331 -0.0360725 0.0725838
1877 1 0.449945 0.149753 0.0499258 0.0101049 -3.35641 -0.00316745 0.0391793 0.0536035
279 1 0.474817 0.14989 0.0251542 0.0174301 -3.35668 0.0244747 0.00128348 -0.0888406
1798 1 0.474929 0.125037 0.0496915 0.0266555 -3.35485 -0.00893555 0.0269882 0.0719273
277 1 0.449628 0.150028 -0.000140764 0.0178721 -3.35283 0.0544702 -0.0647356 -0.020759
204 1 0.499831 0.125263 0.0248997 0.0200959 -3.35066 0.0403939 0.00532669 0.0253313
283 1 0.525274 0.149903 0.025018 0.0275628 -3.34611 -0.0878688 0.0364292 0.0046697
1802 1 0.524625 0.125115 0.0500539 0.0168849 -3.35355 0.056371 -0.0625789 -0.0143634
1881 1 0.500369 0.150391 0.0500194 0.0614266 -3.35099 -0.107971 -0.100332 -0.0325159
208 1 0.549879 0.125021 0.0249124 0.00694856 -3.34879 0.0040516 -0.0515934 0.00989517
1885 1 0.549938 0.149827 0.050027 0.0142095 -3.35169 0.0138664 0.0527472 0.00898406
287 1 0.575034 0.149948 0.0250217 0.016621 -3.34979 -0.116948 0.0433589 -0.030051
1806 1 0.574524 0.125007 0.0499456 0.0248666 -3.34585 0.0342219 -0.0182518 0.00347951
212 1 0.599781 0.125011 0.0246596 0.0184225 -3.34669 0.0384065 -0.0022081 0.0677573
1889 1 0.599721 0.149758 0.0497113 0.0213342 -3.3527 0.0538448 0.0414555 0.0594517
206 1 0.57483 0.124975 -0.000130299 0.00498082 -3.35819 0.00426763 -0.00498724 -0.0217754
289 1 0.599593 0.150296 0.000104141 0.0300207 -3.35064 0.0737306 -0.0466793 -0.108801
291 1 0.624776 0.150134 0.0249268 0.0181416 -3.35143 0.0265156 -0.0573992 -0.000282293
1810 1 0.624955 0.124576 0.0500029 0.0330017 -3.34143 -0.0682378 0.0898837 -0.0781735
216 1 0.649559 0.124533 0.0250725 0.0469708 -3.35666 0.0764545 0.116554 -0.0506062
1893 1 0.649523 0.149695 0.0500589 0.0238477 -3.34723 0.0894962 0.0655895 -0.0354272
214 1 0.67514 0.125022 0.000185426 0.0202141 -3.35416 -0.021908 -0.0269049 0.00847467
295 1 0.674944 0.149902 0.0252494 0.0130019 -3.3573 -0.0120911 -0.0759543 0.0106803
1814 1 0.674492 0.124967 0.0501132 0.0282197 -3.35398 0.0683245 -0.034905 -0.0481912
220 1 0.700184 0.124597 0.0252117 0.0201909 -3.35469 -0.0665393 0.0606338 -0.0109017
1897 1 0.699877 0.149593 0.0501899 0.0237557 -3.34131 -0.0158372 0.0526248 -0.0133141
299 1 0.724948 0.150057 0.025904 0.0956926 -3.34028 -0.00947224 -0.0454403 -0.149414
1818 1 0.724918 0.124578 0.050273 0.0218615 -3.35078 0.0502968 0.0523339 0.0461737
224 1 0.749726 0.124815 0.0251217 0.0151905 -3.34657 0.060869 0.0221885 0.0218991
303 1 0.774794 0.149995 0.0250153 0.00869781 -3.35216 -0.0193366 -0.0447438 0.0226353
1822 1 0.774888 0.12489 0.0498384 0.0239697 -3.352 -0.0138662 0.0715395 0.0692282
1901 1 0.749871 0.149949 0.0501952 0.0114833 -3.3581 0.0332255 -0.0019023 0.0295843
218 1 0.72538 0.124839 0.000247929 0.042009 -3.34317 -0.133149 0.00292391 -0.0149303
228 1 0.799771 0.124875 0.0253171 0.0271238 -3.3474 0.00838521 0.0492659 -0.0852451
307 1 0.82508 0.14987 0.0249617 0.0126761 -3.35284 -0.0391663 -0.0253552 -0.0110726
1826 1 0.825323 0.124995 0.0498684 0.03354 -3.34706 -0.0845386 -0.00251444 0.0727615
1905 1 0.800256 0.150002 0.0500172 0.0209749 -3.35322 -0.0688622 -0.0803155 0.00413521
226 1 0.824466 0.125184 0.000120893 0.0537515 -3.34888 0.0541115 -0.086473 -0.00543104
232 1 0.849975 0.124555 0.0250644 0.0257722 -3.35077 0.054186 0.066719 -0.0419079
311 1 0.874901 0.149778 0.0249686 0.010723 -3.35932 0.0259439 0.0288986 -0.0359571
1830 1 0.875279 0.125129 0.0499511 0.0216218 -3.34748 -0.0619977 -0.0976575 -0.0131775
1909 1 0.850199 0.149953 0.0500081 0.0115362 -3.35373 -0.0172935 0.0140237 0.0305465
309 1 0.849863 0.149766 -0.000118083 0.012799 -3.35073 0.0458192 0.0115203 0.0407018
230 1 0.874748 0.124807 -0.000116019 0.0153326 -3.36617 0.126533 0.0239727 0.0319917
236 1 0.900053 0.124984 0.0249978 0.00889273 -3.34664 -0.0552699 0.0105384 -0.0335327
313 1 0.900302 0.150073 7.7132e-05 0.0201614 -3.35283 -0.109586 -0.101075 0.0112745
315 1 0.925388 0.150053 0.0248041 0.0339716 -3.35039 -0.0028141 -0.0635227 0.114963
1834 1 0.925103 0.124944 0.0499736 0.0144217 -3.3538 0.0259489 0.00412178 0.0296056
1913 1 0.9001 0.149809 0.0500494 0.0110313 -3.35881 0.0702555 0.0819419 -0.022835
234 1 0.924967 0.124777 0.000329411 0.0254984 -3.35121 0.0648682 0.0361027 -0.0655383
164 1 1.0004 0.125075 0.0251925 0.0370265 -3.35411 -0.0737121 -0.0094239 0.00873269
1841 1 1.00034 0.149966 0.0501509 0.0101304 -3.3511 -0.0131142 0.011406 -0.03172
240 1 0.950077 0.124539 0.0249457 0.0315412 -3.35176 -0.0350479 0.0570705 0.0395114
319 1 0.97484 0.14983 0.0250693 0.0355153 -3.34868 0.123486 0.00373575 0.0688196
1838 1 0.975068 0.124982 0.0499055 0.0146273 -3.35485 -0.0163723 -0.0166625 0.0219835
1917 1 0.949881 0.149809 0.0502172 0.0265434 -3.3558 0.021836 0.0233622 -0.0347476
238 1 0.975071 0.124998 3.69825e-05 0.0203009 -3.34207 -0.0320824 -0.0758844 0.0199254
248 1 0.0502047 0.174718 0.0252083 0.0266141 -3.3485 -0.00606278 0.108034 0.0452016
323 1 0.025292 0.200128 0.024898 0.0337334 -3.35791 -0.00192617 -0.0355911 0.154983
1842 1 0.0257365 0.174957 0.0505562 0.0774243 -3.36487 -0.128967 0.0754015 -0.0815111
1925 1 0.0504206 0.200387 0.0503304 0.0421276 -3.36187 -0.0366604 -0.095474 -0.0714525
242 1 0.0249376 0.174967 0.000152189 0.0195131 -3.3468 0.0846377 -0.0732621 0.00636915
252 1 0.100131 0.174971 0.0244458 0.0269732 -3.34602 -0.0118178 0.000672334 0.107627
327 1 0.0749038 0.199879 0.0247682 0.035756 -3.34819 0.0911324 0.0356378 0.107312
1846 1 0.0759028 0.175179 0.0500092 0.0723699 -3.36025 -0.161038 -0.0619674 -0.0202905
1929 1 0.100321 0.200171 0.049818 0.014415 -3.35575 -0.0173735 -0.00710084 0.0275246
329 1 0.100114 0.200277 -0.000105185 0.0246663 -3.35089 -0.0317848 0.00233205 -0.00133553
246 1 0.0753699 0.174651 1.51169e-05 0.0236979 -3.33871 -0.0272404 0.0676531 -0.0327024
256 1 0.150031 0.174996 0.0248283 0.00840107 -3.34791 0.0137268 -0.0222955 0.0137018
331 1 0.124883 0.200044 0.0246356 0.0228075 -3.35139 0.0761289 -0.0152934 0.0793228
1850 1 0.124927 0.174593 0.0496881 0.0342217 -3.34856 -0.0218472 0.107564 0.0584395
1933 1 0.149999 0.199692 0.0497712 0.0318819 -3.34976 -0.0445854 0.0514981 0.0729796
333 1 0.150075 0.199443 -7.5236e-05 0.0590908 -3.33626 0.028815 0.16589 0.0843324
260 1 0.200177 0.174848 0.025364 0.0310839 -3.35219 -0.0276932 0.0233917 -0.0650814
335 1 0.174762 0.200042 0.0253493 0.0261352 -3.35075 0.0773112 -0.0433823 -0.0955788
1854 1 0.175185 0.1748 0.0500307 0.0215582 -3.34207 -0.0423308 0.0558346 -0.0293394
1937 1 0.200058 0.200164 0.0500278 0.0187442 -3.35467 0.112995 -0.0523281 0.0292866
337 1 0.199864 0.199849 0.000289875 0.0179964 -3.3523 0.00647388 0.0129805 -0.061194
264 1 0.250385 0.174789 0.0250605 0.0236218 -3.35235 -0.0956349 0.019827 0.00736639
339 1 0.22499 0.199986 0.0247009 0.0360305 -3.3566 0.0908394 -0.0331382 0.0947652
1858 1 0.225397 0.174823 0.0499818 0.0278217 -3.36038 -0.0463924 0.0646128 -0.0151182