ITEM: TIMESTEP
14250
ITEM: NUMBER OF ATOMS
32000
ITEM: BOX BOUNDS pp pp pp
5.7680617453334309e+00 7.5231938254661415e+01
-2.9393172290846366e+00 8.3939317229078625e+01
-4.0720539308165797e+00 8.5072053930812260e+01
ITEM: ATOMS id type xs ys zs c_csym c_peratom fx fy fz
8 1 0.0487949 0.0203793 0.0206193 6.12475 -3.20624 -0.157986 0.0239095 0.144344
4 1 0.00971777 0.026901 0.0292464 2.801 -3.29632 0.0225504 0.165028 0.523693
2 1 0.0220542 0.0214424 -0.000141032 1.02383 -3.14534 0.128971 -0.0960491 0.00787365
12 1 0.0923099 0.0184338 0.0185104 6.21896 -3.30553 -0.422262 -0.0259998 -0.130815
1610 1 0.113682 0.0197954 0.043206 5.80056 -3.2698 0.298025 -0.265102 0.0644667
91 1 0.117739 0.0449664 0.0170636 5.33367 -3.3197 -0.0677884 -0.0279065 -0.041222
1606 1 0.0690564 0.0244355 0.0446508 6.45304 -3.18118 0.0126929 0.0571233 -0.203191
1689 1 0.0961216 0.0473593 0.0422757 4.99585 -3.20482 -0.261919 0.106062 0.0578259
16 1 0.143487 0.0203384 0.020966 0.605033 -3.32573 0.175661 -0.0137913 0.0243738
1614 1 0.170585 0.0205944 0.0447026 0.136524 -3.3436 0.0391934 -0.029097 0.089398
95 1 0.173399 0.0451242 0.0226268 0.199007 -3.33976 0.0314074 0.0106427 -0.0832928
1693 1 0.141959 0.0438422 0.0422007 5.65486 -3.33126 0.193337 0.141093 0.0391302
20 1 0.201231 0.0217525 0.0247228 0.430564 -3.33841 -0.0300614 -0.269283 -0.425531
1618 1 0.228616 0.0202332 0.0471755 0.139279 -3.31711 -0.191154 0.0533012 -0.107924
99 1 0.228952 0.0445566 0.0249026 0.918173 -3.30596 0.30109 -0.113757 0.176827
97 1 0.203923 0.0453344 0.00170663 0.408183 -3.33407 0.0238905 -0.100829 -0.159425
17 1 0.201343 0.997686 0.000465503 0.352738 -3.35683 0.169396 0.00278655 0.0969932
1697 1 0.199961 0.0447747 0.046598 0.199112 -3.31598 -0.0874019 -0.11053 -0.13942
18 1 0.232307 0.0201282 0.00305085 0.529992 -3.34425 -0.383242 0.249797 -0.146383
24 1 0.258001 0.0205949 0.0265416 0.311384 -3.32926 0.0628627 -0.0361912 -0.0313677
103 1 0.288593 0.0459113 0.0305263 6.40696 -3.31971 0.0464144 0.119275 -0.171809
21 1 0.260887 0.997583 0.00246268 0.607215 -3.30699 -0.190756 0.193761 0.391664
101 1 0.260076 0.045175 0.00564517 6.33108 -3.28789 0.225426 0.0388806 0.363628
22 1 0.28842 0.0244677 0.00729297 5.25489 -3.25154 -0.15737 -0.228565 -0.0994171
28 1 0.315505 0.0239556 0.0299627 5.68196 -3.23546 -0.0322455 -0.158402 -0.10857
32 1 0.361139 0.034256 0.0229797 6.17412 -3.2312 0.0971708 -0.428494 -0.10975
26 1 0.333125 0.0309858 0.00253531 5.77264 -3.16537 0.0329031 0.14268 0.348426
25 1 0.313411 0.00180921 0.00538425 5.09002 -3.22954 0.354604 -0.0231935 -0.0999486
31 1 0.383249 0.00726238 0.0195965 0.73861 -3.28991 -0.147498 0.136234 0.0471433
30 1 0.379262 0.0388271 0.995712 7.75709 -3.27278 -0.139499 -0.0853579 0.0268874
36 1 0.402708 0.0373013 0.0191927 6.5975 -3.28193 0.0951162 0.0847781 0.166919
35 1 0.421107 0.00982885 0.0159198 7.49115 -3.29533 0.323347 0.0540592 -0.168715
40 1 0.447725 0.0334429 0.0167741 5.01743 -3.29611 0.0326663 -0.264657 -0.162203
39 1 0.477253 0.00883257 0.0187936 0.606107 -3.25238 -0.47063 -0.104538 0.00311662
1637 1 0.446753 0.00727593 0.0399149 7.04111 -3.28594 -0.150561 0.0325131 0.142205
1638 1 0.472133 0.0303776 0.0431249 5.93356 -3.30067 0.0856729 0.255191 -0.133067
44 1 0.501088 0.0324895 0.0216198 0.479999 -3.2654 0.346242 0.0444554 0.0484702
43 1 0.53071 0.00789766 0.0228591 6.20209 -3.30715 -0.0696102 0.225863 -0.0316788
42 1 0.531202 0.0316954 1.00011 7.08012 -3.31152 -0.0526672 0.162521 -0.122858
48 1 0.556278 0.0327304 0.0253479 6.97191 -3.29939 -0.202343 -0.144052 0.0186698
41 1 0.50514 0.00869498 0.997284 5.77301 -3.304 -0.070662 0.0134347 -0.0355391
52 1 0.593173 0.0291466 0.0165177 8.23514 -3.16873 0.256367 -0.204346 0.202884
1650 1 0.615332 0.0273239 0.0410862 8.36596 -3.20758 -0.0646722 -0.159663 0.0181458
56 1 0.637152 0.0212663 0.0162597 5.53647 -3.31383 -0.0619387 -0.0918887 -0.0856038
135 1 0.661819 0.0450831 0.0184272 6.20768 -3.32883 0.108791 0.0876953 -0.0255463
1654 1 0.662108 0.0233602 0.0429307 1.95389 -3.31009 0.181594 -0.102166 0.0317373
60 1 0.695536 0.0227167 0.0235403 0.229823 -3.30609 -0.0529572 0.194932 -0.0524777
1657 1 0.694668 1.00112 0.0463308 0.384787 -3.3525 -0.049344 -0.0373316 0.000734302
59 1 0.727121 0.00233986 0.026101 0.367884 -3.30455 0.0100758 -0.326942 -0.0468028
58 1 0.726959 0.0230779 0.00251358 0.0494446 -3.29822 -0.0595061 0.139704 -0.0487356
139 1 0.72214 0.0465836 0.0255049 0.349306 -3.30941 -0.0724169 -0.103608 -0.0943782
64 1 0.753136 0.0248029 0.0275414 0.341477 -3.2995 0.291468 0.0500005 0.0355138
61 1 0.759275 0.00142539 0.00472232 5.74197 -3.28522 -0.161701 0.0084245 0.137157
68 1 0.811148 0.0252643 0.0319313 8.32206 -3.25439 -0.00881045 0.0256542 -0.11582
62 1 0.785527 0.0240996 0.00685271 8.6365 -3.30673 -0.106248 -0.0249167 -0.16492
143 1 0.782995 0.0481988 0.0284017 8.01258 -3.33202 -0.268198 0.00531419 0.0673107
141 1 0.754806 0.0459742 0.00451732 7.7368 -3.33559 -0.0847504 0.183593 -0.0131694
63 1 0.7854 0.00210352 0.0300733 5.9202 -3.3169 -0.0287476 -0.0654133 0.0676534
65 1 0.808185 0.997743 0.00350255 8.72757 -3.32018 -0.137279 0.150769 0.0544406
72 1 0.847355 0.0309947 0.0250986 6.26756 -3.31821 0.282085 0.0352907 0.0771106
71 1 0.873005 0.00633156 0.0278124 6.85499 -3.31607 -0.170317 0.23806 -0.273418
76 1 0.903251 0.0325087 0.0289823 0.385763 -3.32537 -0.274499 -0.129915 -0.25083
74 1 0.933901 0.0325883 0.00674741 5.53217 -3.29638 0.00899799 0.0630642 0.133417
75 1 0.931042 0.00867166 0.0307227 5.29796 -3.30253 -0.134355 -0.0457587 0.0872603
70 1 0.877127 0.0314281 0.00419533 0.240212 -3.32561 -0.0214173 -0.00979546 0.0175954
73 1 0.905524 0.00775318 0.00694214 5.76643 -3.32789 0.166647 0.0406663 -0.00302976
80 1 0.959002 0.0323172 0.0309676 1.55791 -3.30144 0.0547773 0.158626 0.218204
78 1 0.981136 0.0275179 0.00454369 0.827118 -3.29948 0.0832898 0.130247 0.216199
77 1 0.953132 0.00522248 0.00601331 5.54551 -3.28704 0.189908 -0.215889 -0.213223
79 1 0.979434 0.00637256 0.0286177 6.17897 -3.31225 0.264664 -0.405362 0.431878
83 1 0.0391568 0.0494491 0.0342509 7.25873 -3.34668 -0.207998 -0.112502 0.0230642
88 1 0.0591767 0.075746 0.0287124 5.63686 -3.27025 0.158376 0.0477374 -0.0509232
84 1 0.0179806 0.0778456 0.0374033 4.84523 -3.33468 0.103793 -0.113037 -0.111734
82 1 0.0333052 0.0729088 0.00654826 1.01218 -3.25305 -0.0824108 -0.0172943 -0.255862
81 1 0.00948038 0.0490986 0.00836358 4.30819 -3.24336 0.0100053 0.478301 -0.329582
87 1 0.0731646 0.0466746 0.0181182 6.03197 -3.27777 -0.150666 -0.114324 -0.028499
92 1 0.097496 0.072518 0.0208367 2.49007 -3.27686 -0.13686 -0.0542805 -0.0868901
171 1 0.123572 0.0966154 0.0215812 5.78472 -3.29052 -0.078494 -0.0203546 -0.21354
1690 1 0.122435 0.0711375 0.0440009 4.88617 -3.22033 -0.0491973 -0.236388 0.153365
96 1 0.14721 0.0707021 0.0193861 1.19139 -3.3388 0.044561 -0.243888 0.0847554
1694 1 0.172484 0.0690581 0.0439298 0.700464 -3.3155 0.109284 -0.233341 0.0207687
175 1 0.179799 0.0943034 0.023015 0.345316 -3.29719 -0.33913 -0.138973 -0.252598
1773 1 0.14951 0.0937376 0.0440056 6.29959 -3.27694 -0.0996763 0.35203 0.204783
94 1 0.178138 0.0699266 0.999741 0.296607 -3.34593 0.0752148 -0.00846866 0.0274915
100 1 0.203266 0.0692527 0.0243262 0.180308 -3.30553 0.0260285 -0.117776 -0.152378
1777 1 0.204289 0.0928682 0.0470653 0.149148 -3.28385 -0.0496928 -0.188858 0.0146013
98 1 0.235977 0.0692038 0.00542971 6.5997 -3.30537 -0.0983301 0.078877 0.0846158
104 1 0.261842 0.0690137 0.0300191 6.4902 -3.33472 0.0783792 -0.0575002 -0.115079
108 1 0.303532 0.0768949 0.0247084 0.318862 -3.31106 0.185046 -0.0453956 0.195825
102 1 0.277603 0.0758083 0.00224437 0.321033 -3.29528 0.112123 0.0935695 0.0839278
105 1 0.306139 0.0532224 0.00279629 0.29549 -3.27011 -0.0859984 0.327435 0.224716
107 1 0.331745 0.0532878 0.0262359 0.471102 -3.29265 -0.163698 0.342338 0.110682
111 1 0.375867 0.0625252 0.0206737 7.15538 -3.22949 -0.0109233 -0.19615 0.284721
112 1 0.347244 0.0842673 0.0215711 7.12103 -3.34081 -0.232415 -0.00717825 0.0703935
1710 1 0.372804 0.084142 0.0462032 6.7389 -3.31168 -0.178281 -0.177425 -0.149268
109 1 0.348292 0.0612409 0.998913 6.60605 -3.33915 0.0431468 -0.0305549 -0.201883
115 1 0.431855 0.0619346 0.0263676 7.90352 -3.32823 0.341897 0.0231019 -0.344458
1713 1 0.400568 0.0590965 0.0442981 5.59126 -3.2726 -0.117652 0.189241 0.126858
113 1 0.40749 0.0619437 1.00007 6.44804 -3.32629 0.165063 0.0743585 0.0296715
116 1 0.404591 0.0846892 0.0262193 0.515668 -3.28824 0.181691 -0.0683244 -0.111639
110 1 0.379448 0.0848475 1.00122 0.348768 -3.2708 -0.144266 -0.00178801 -0.301757
114 1 0.435106 0.0848236 0.00258315 7.7193 -3.29476 0.210082 -0.380328 0.297507
119 1 0.474563 0.0555812 0.0194851 6.69483 -3.28648 -0.101711 -0.0740903 0.00865243
120 1 0.461798 0.0840889 0.0277396 7.33385 -3.27135 -0.350431 -0.224113 0.228264
118 1 0.475793 0.0781136 0.995011 9.46561 -3.35866 -0.0578318 -0.100041 -0.0286548
123 1 0.528031 0.0550792 0.024725 5.68227 -3.26955 0.175329 -0.215329 -0.0915226
121 1 0.505482 0.0558634 0.997367 6.06594 -3.28982 -0.0487261 -0.121925 0.0524342
124 1 0.500557 0.0789304 0.0226169 7.85419 -3.31848 0.296872 -0.142952 -0.161258
128 1 0.546411 0.081927 0.0192872 5.91299 -3.30244 -0.0713727 0.302587 -0.188863
127 1 0.577337 0.058662 0.0221814 7.44664 -3.27342 -0.147971 0.244264 0.014129
131 1 0.617945 0.0523743 0.0198566 0.736037 -3.26609 -0.0318159 -0.076661 0.0221905
132 1 0.602515 0.0823863 0.0250007 6.87774 -3.31807 -0.096595 -0.0614864 -0.0544204
126 1 0.579574 0.0815652 -0.000571804 7.29152 -3.31663 -0.126195 0.0566006 0.00553657
136 1 0.643253 0.075319 0.0221466 0.46038 -3.29311 0.0391722 -0.128858 -0.161082
1733 1 0.640452 0.0505174 0.0449609 0.864579 -3.2331 -0.224824 0.017469 0.0472788
1734 1 0.667297 0.0723826 0.0470656 0.955384 -3.24883 -0.0017605 0.131445 -0.00283726
1737 1 0.689223 0.0459558 0.0451511 2.22857 -3.32324 0.207782 0.037941 -0.110851
140 1 0.686914 0.0690295 0.020047 7.2636 -3.29354 0.153806 -0.183872 -0.0516271
144 1 0.749902 0.0693564 0.0280137 8.03842 -3.31316 -0.0241304 0.0934294 -0.382842
219 1 0.713675 0.0919932 0.0221348 8.06943 -3.3012 0.347717 0.0534423 -0.052718
1738 1 0.717018 0.0689359 0.0467703 2.03631 -3.2992 0.130809 0.228103 0.0562181
148 1 0.792354 0.0786306 0.0211508 7.10058 -3.32995 -0.143586 0.060441 0.0689866
147 1 0.822015 0.0561024 0.0224167 7.19558 -3.29665 -0.211445 -0.0495593 0.116967
152 1 0.84598 0.0812626 0.0246616 0.660713 -3.27732 0.154231 -0.322038 0.110846
1746 1 0.817581 0.0809001 0.0467164 6.96524 -3.30166 -0.198489 -0.166156 -0.108626
149 1 0.850286 0.0561054 0.00103092 0.370525 -3.3178 0.0387755 -0.0498444 0.128054
151 1 0.873075 0.0564417 0.0268856 0.523244 -3.37536 0.188562 -0.137541 -0.0504199
155 1 0.931043 0.0562702 0.0286505 0.556469 -3.31885 0.0685091 -0.0830315 0.327749
156 1 0.902369 0.0797439 0.0286024 0.222545 -3.34292 0.0617312 -0.240532 0.0347329
150 1 0.876902 0.0802189 0.00429899 0.359816 -3.33826 0.0898393 -0.298421 -0.183037
153 1 0.903827 0.0552269 0.0049242 0.555613 -3.35049 0.0303015 0.043759 0.19517
154 1 0.93201 0.0792977 0.00820024 0.539944 -3.33192 0.356321 0.0121236 -0.172959
159 1 0.988776 0.0552045 0.0340581 5.80045 -3.32319 0.261175 -0.00215458 0.270703
160 1 0.960573 0.0789648 0.0322576 0.160263 -3.32793 -0.0117024 -0.123029 0.0363241
157 1 0.963639 0.0566201 0.00980612 6.29128 -3.36205 0.0414883 -0.0477169 -0.20052
158 1 0.993411 0.0785594 0.0117711 6.67258 -3.34979 -0.120394 -0.129401 -0.0262279
161 1 0.0205558 0.10161 0.0163527 5.57604 -3.29773 -0.381941 0.277886 -0.189662
165 1 0.0558326 0.0984631 0.00570343 6.96557 -3.24829 0.240408 -0.0563611 -0.306946
163 1 0.0452605 0.103204 0.0399587 5.82308 -3.2771 0.371742 -0.0693014 -0.0374921
164 1 0.0167974 0.124671 0.03962 0.562991 -3.3158 0.018861 0.167551 -0.266722
162 1 0.0474002 0.12641 0.0187185 1.56652 -3.28047 -0.254783 -0.229484 -0.0143748
168 1 0.0740967 0.127215 0.0425732 1.86814 -3.30117 0.0102188 0.0389327 0.162382
167 1 0.0837037 0.102242 0.0269593 3.06304 -3.30759 -0.0698343 -0.328867 -0.0220738
172 1 0.108145 0.126175 0.0258495 7.71041 -3.29825 -0.116042 0.0580432 -0.283148
170 1 0.127544 0.118968 0.998529 5.97632 -3.25355 -0.136087 0.14798 0.076598
176 1 0.153695 0.118524 0.0207927 6.50681 -3.25241 -0.00673298 -0.156051 0.312029
174 1 0.184328 0.118489 0.000763338 7.45581 -3.31475 0.00993526 -0.136306 0.178202
179 1 0.234829 0.0930406 0.0271216 6.48821 -3.34169 0.142886 -0.139977 0.182734
180 1 0.208813 0.116918 0.0258276 6.95566 -3.31974 0.129912 0.253438 0.0319983
184 1 0.24969 0.12393 0.0229578 0.0982518 -3.3332 0.013738 0.0188898 -0.192238
177 1 0.20956 0.0934239 0.00227133 6.82192 -3.33232 0.0808178 -0.0126892 0.123253
181 1 0.251806 0.100099 1.00009 0.13943 -3.32636 -0.139852 0.194864 -0.115673
178 1 0.223877 0.124713 0.997367 0.221717 -3.33998 0.326966 0.0326784 0.196035
183 1 0.275543 0.0996327 0.0255894 0.532599 -3.30882 0.172072 0.128984 -0.262292
188 1 0.290406 0.131124 0.0192631 7.5741 -3.35463 0.215138 -0.193031 0.107112
1789 1 0.343407 0.106821 0.0451596 7.9821 -3.34753 0.158157 -0.0206657 0.130793
187 1 0.319336 0.106924 0.0201636 6.74978 -3.32427 -0.246584 0.231308 0.147169
192 1 0.349695 0.130667 0.0250575 0.248867 -3.33113 0.00877618 0.169199 -0.154711
1786 1 0.316502 0.129758 0.0437596 7.10966 -3.34515 0.040776 0.222897 0.0342333
195 1 0.43379 0.106951 0.0291077 0.273403 -3.31144 -0.0389194 -0.000530079 0.0995616
191 1 0.377462 0.106745 0.0258741 0.329266 -3.30455 -0.13912 0.436334 -0.191119
196 1 0.406909 0.13035 0.0291027 0.347926 -3.30152 -0.0186576 0.143117 -0.173033
193 1 0.408121 0.106402 0.00350426 0.327173 -3.29036 -0.167148 0.48967 0.182375
190 1 0.381543 0.131388 0.00476487 0.646354 -3.34107 -0.0151176 -0.0728469 -0.273394
194 1 0.435579 0.129959 0.00711389 5.05804 -3.3223 -0.129869 0.233064 -0.112484
199 1 0.48585 0.107772 0.0335792 5.3402 -3.28972 -0.0485098 -0.040009 0.0417108
200 1 0.460359 0.131774 0.0317875 4.40309 -3.28872 0.0546496 -0.192471 0.397115
197 1 0.462095 0.106514 0.00729493 4.42029 -3.24204 -0.00985239 0.140452 0.00739323
204 1 0.488089 0.129434 0.0103914 5.3326 -3.29344 0.298362 0.0977059 0.192017
203 1 0.51798 0.106296 0.0148381 4.45807 -3.34014 0.00915274 0.0125862 -0.0337054
1805 1 0.542704 0.106637 0.0400486 5.35404 -3.28525 -0.197675 -0.049886 -0.24363
208 1 0.543673 0.130833 0.0172111 0.436561 -3.28383 0.000517571 -0.313095 0.138081
1802 1 0.512388 0.129429 0.0363203 5.07636 -3.28563 0.0349707 0.0552099 -0.0300009
207 1 0.573616 0.106826 0.0210189 0.419498 -3.30943 -0.0269052 -0.332202 -0.0564727
212 1 0.599157 0.129401 0.0244063 0.0734068 -3.30098 0.0977827 0.234204 -0.0507008
209 1 0.606018 0.104431 0.000260105 7.17976 -3.33126 -0.0668115 0.226603 0.110663
206 1 0.575426 0.130243 0.998537 0.267914 -3.2965 0.134935 -0.13798 0.0374309
211 1 0.627977 0.105282 0.0262859 6.37575 -3.31519 0.170353 0.0121836 0.120425
210 1 0.629621 0.129129 0.00464039 6.76728 -3.29736 0.0946548 0.0307802 0.0884457
215 1 0.669846 0.0975097 0.0240103 0.292875 -3.25986 -0.0527341 0.0903558 -0.199947
216 1 0.654206 0.128226 0.0297123 6.49806 -3.32246 0.115123 -0.133606 0.105115
214 1 0.67117 0.121445 0.00192409 5.87826 -3.31798 -0.272895 0.145381 0.0685468
220 1 0.695693 0.120809 0.0276088 5.50338 -3.28352 -0.27693 0.172123 -0.199394
224 1 0.733345 0.12119 0.0189626 4.95477 -3.28185 -0.0344054 -0.0397199 0.0548671
223 1 0.76083 0.0994085 0.0206548 7.13843 -3.3125 0.0374052 0.0155025 -0.0788011
228 1 0.789599 0.123885 0.0204624 0.440859 -3.32255 -0.264643 0.337156 0.232017
1822 1 0.759064 0.123336 0.0435617 7.27977 -3.30815 0.187235 0.105687 -0.115059
1825 1 0.787901 0.102237 0.0446905 7.0867 -3.2996 0.0637952 0.1058 -0.047752
227 1 0.817929 0.103339 0.022719 0.32026 -3.28732 0.0502595 -0.168643 0.0702495
232 1 0.846033 0.125462 0.0256135 0.0921627 -3.33271 0.0765733 0.0893117 -0.0758106
1826 1 0.817379 0.125443 0.0476745 0.319765 -3.31493 -0.210351 0.204057 -0.179351
1829 1 0.845438 0.103199 0.0483425 0.120926 -3.30395 -0.0321347 -0.0395223 0.0348395
229 1 0.848905 0.102256 0.00207273 0.0833405 -3.31476 -0.150454 0.138818 -0.213132
235 1 0.931768 0.101761 0.0317871 0.16046 -3.33779 -0.0621612 0.124988 -0.224283
231 1 0.875107 0.102919 0.0265645 0.199484 -3.32431 -0.0711685 0.0233275 0.182368
236 1 0.902399 0.125084 0.0301784 0.197209 -3.35208 0.120249 0.0944851 -0.199259
234 1 0.932734 0.125564 0.00898899 0.193818 -3.34317 0.371665 -0.0271612 0.0154828
233 1 0.905554 0.103328 0.00574044 0.369172 -3.31139 -0.251649 -0.244045 0.236194
230 1 0.876272 0.125575 0.00397914 0.145579 -3.33367 0.0512009 0.118605 0.212494
239 1 0.988099 0.1015 0.0350637 0.244271 -3.32982 0.204343 0.00538241 0.11384
240 1 0.959548 0.124948 0.0334667 0.0878279 -3.32089 -0.0435034 -0.0716393 0.0683691
238 1 0.990653 0.125486 0.0141785 0.232997 -3.33772 0.0411674 -0.197444 -0.180936
237 1 0.962269 0.102165 0.0106508 0.138216 -3.34629 -0.0488077 -0.0238415 -0.0437883
243 1 0.0436307 0.148872 0.0394344 0.584135 -3.3385 0.180416 0.128606 0.351579
244 1 0.0156568 0.171981 0.0370831 0.217965 -3.3432 0.231677 -0.0441421 0.170872
241 1 0.0178878 0.148554 0.0152827 0.204533 -3.3196 0.119909 0.0842274 0.0707836
242 1 0.0474725 0.172512 0.0168207 0.221627 -3.35303 -0.120329 -0.162973 0.0373044
247 1 0.10291 0.14992 0.0454597 0.815959 -3.31131 -0.0874795 -0.16457 0.063789
249 1 0.105721 0.145608 -0.00151413 1.10933 -3.31491 0.304737 -0.0118897 0.368416
245 1 0.0751575 0.148744 0.0199041 0.508545 -3.29591 0.222525 0.0366975 0.0631786
248 1 0.0726835 0.172268 0.0424666 0.284362 -3.35091 0.295893 -0.0579469 -0.149847
246 1 0.105268 0.168704 0.0214693 1.11088 -3.30661 -0.0875831 0.298971 -0.0375264
255 1 0.182434 0.142567 0.0251722 7.02415 -3.32568 0.141251 0.021425 0.0478658
251 1 0.136942 0.146797 0.0267051 6.55069 -3.25679 -0.0317891 0.022789 -0.131258
253 1 0.158084 0.14305 0.000670478 5.82 -3.31989 -0.0379556 0.110319 -0.0890619
252 1 0.131732 0.17118 0.0459618 0.761543 -3.27917 -0.0381598 -0.0404715 0.0647352
256 1 0.161196 0.170384 0.0223516 11.8778 -3.27429 -0.256447 0.164297 0.425966
250 1 0.133415 0.168647 0.999203 7.18424 -3.34499 0.106723 -0.215356 -0.0153162
259 1 0.224204 0.148581 0.0209627 0.138148 -3.33781 -0.247607 -0.103711 -0.155781
260 1 0.198388 0.17443 0.0193524 1.52346 -3.27479 0.0990363 -0.273609 -0.367142
264 1 0.23773 0.179331 0.013702 6.64273 -3.33958 0.0884042 0.174437 -0.0013821
1858 1 0.224269 0.171897 0.042784 5.41084 -3.25112 -0.0721026 -0.106397 -0.166962
257 1 0.198233 0.149769 0.996198 0.176985 -3.32288 0.169312 0.00786228 0.0999697
263 1 0.265262 0.155171 0.0176467 7.27504 -3.32694 -0.155163 0.0563199 -0.252557
1862 1 0.262781 0.178119 0.03876 6.87876 -3.29712 0.00812462 0.103281 -0.0324137
268 1 0.295587 0.179641 0.0209881 0.245501 -3.34321 -0.0123601 -0.0962994 -0.0016305
1865 1 0.289156 0.153676 0.0428328 7.89627 -3.33704 0.241253 -0.0287507 -0.23341
267 1 0.322981 0.155285 0.0235878 0.418054 -3.3472 -0.2161 -0.110772 -0.0886924
272 1 0.351517 0.177641 0.0258098 0.211404 -3.32711 0.220411 0.0982612 -0.00870387
266 1 0.32652 0.178913 0.000467588 0.0678641 -3.33265 0.055462 0.120942 0.0439086
1869 1 0.349043 0.15453 0.0479572 0.230161 -3.34225 -0.110728 0.026888 0.0544432
1866 1 0.321119 0.178665 0.0465172 0.443264 -3.31825 -0.0263533 -0.15658 -0.0403079
269 1 0.35394 0.154821 0.00218692 0.0744669 -3.35092 0.000903788 -0.0300071 0.0404777
271 1 0.380247 0.153787 0.0273929 0.291094 -3.34042 -0.132431 0.329849 -0.0931979
273 1 0.410355 0.155017 0.00443481 6.1539 -3.32573 -0.047515 -0.111488 0.0268422
276 1 0.409038 0.17815 0.0280707 7.48527 -3.32313 -0.155857 -0.0600599 0.211139
275 1 0.43438 0.154599 0.0303253 6.47844 -3.30931 0.0634325 -0.00599816 -0.0465496
270 1 0.382555 0.178629 0.00402119 6.80652 -3.33477 0.133455 -0.22872 -0.017426
280 1 0.447901 0.184844 0.022161 7.48132 -3.29881 -0.0898501 -0.0475702 0.0482952
279 1 0.473266 0.159786 0.0205436 8.3918 -3.33424 -0.0927455 -0.0971852 0.182159
278 1 0.474853 0.183215 0.999277 5.62964 -3.2898 0.267786 -0.0323123 -0.0422993
284 1 0.500712 0.182327 0.0252433 6.16196 -3.26412 -0.0428456 0.167381 0.114813
283 1 0.512856 0.154244 0.0155818 6.74422 -3.31318 0.114715 -0.425877 0.020047
288 1 0.53951 0.176802 0.0195633 7.50004 -3.32925 0.163392 -0.0715653 -0.161948
285 1 0.544925 0.152856 0.995155 0.167133 -3.32656 -0.0746745 0.155012 0.0111603
287 1 0.569549 0.153833 0.0211763 0.173745 -3.33342 0.156122 -0.040703 0.100745
291 1 0.626436 0.15284 0.0278922 0.205364 -3.33235 -0.203769 -0.0464688 -0.170228
292 1 0.597414 0.17584 0.0244932 0.23258 -3.32996 -0.272881 0.0573489 0.0265057
290 1 0.629304 0.176887 0.0049835 0.318654 -3.30295 -0.126959 -0.198109 0.0510309
289 1 0.601689 0.153688 0.00181101 0.229836 -3.34238 0.0326594 -0.121059 0.164089
286 1 0.570708 0.176695 0.998882 0.265418 -3.34185 0.113414 0.0513525 -0.0173995
295 1 0.679921 0.151059 0.0325925 5.34275 -3.28246 -0.0367653 0.00845272 -0.0818362
296 1 0.653378 0.176231 0.0299778 0.302605 -3.33179 0.0105403 -0.0715369 0.00574129
293 1 0.656477 0.15191 0.00623414 5.8169 -3.33336 0.0822403 -0.00329986 0.195493
294 1 0.685496 0.174248 0.0107449 5.64553 -3.31678 -0.218427 0.0781397 0.0352182
1901 1 0.738052 0.149595 0.0423565 7.14903 -3.28222 -0.0508739 0.0550918 -0.115992
300 1 0.708049 0.173189 0.0363653 5.39317 -3.2973 0.0817245 0.279746 -0.202202
299 1 0.71359 0.148419 0.017424 7.36812 -3.23481 0.260594 0.2162 0.154928
304 1 0.743041 0.173842 0.0217098 3.89618 -3.26449 -0.204893 0.0815347 0.204797
303 1 0.7593 0.145381 0.0171278 7.30114 -3.31845 0.175074 0.00796012 0.0422641
1905 1 0.787805 0.146762 0.04532 1.73367 -3.31493 -0.0763609 0.0147006 -0.386554
308 1 0.78715 0.169455 0.0210467 5.88515 -3.34412 0.0002813 0.0852303 -0.151674
1902 1 0.767031 0.174843 0.046669 4.37419 -3.23259 -0.0570062 -0.121405 -0.288083
1906 1 0.813424 0.172069 0.0480349 1.55193 -3.34736 0.209739 0.0671453 -0.308168
307 1 0.817792 0.148544 0.0249976 0.487305 -3.3081 -0.127125 -0.144583 -0.143109
312 1 0.844312 0.171516 0.0259959 0.33588 -3.33065 0.151013 0.211313 -0.0183936
1909 1 0.845741 0.148941 0.0496403 0.358805 -3.32127 -0.328017 0.180864 0.0428728
309 1 0.845924 0.149141 0.00241068 0.495203 -3.31777 0.319124 -0.0494031 0.0387574
311 1 0.873216 0.148203 0.0279796 0.304145 -3.35208 0.315541 0.156638 -0.257563
1910 1 0.873289 0.172579 0.0501785 0.199767 -3.37657 -0.183763 -0.108264 0.0386434
315 1 0.931335 0.148096 0.0321713 0.104178 -3.33232 -0.0154888 0.109737 -0.134188
310 1 0.875574 0.170877 0.00415913 0.14693 -3.35501 0.121762 0.0885243 -0.0235136
316 1 0.902999 0.170709 0.0289971 0.320007 -3.37097 -0.111615 0.206251 0.0515988
314 1 0.93472 0.172116 0.00905336 0.337012 -3.34013 -0.311615 -0.191302 -0.089917
313 1 0.905555 0.148065 0.00673485 0.10687 -3.36652 -0.175726 0.259216 -0.0449025
317 1 0.961667 0.148047 0.0117731 0.258476 -3.35263 0.11172 0.126386 -0.322606
319 1 0.988768 0.147172 0.0364416 0.371847 -3.31701 0.0307661 0.401292 -0.0150206
320 1 0.960254 0.171321 0.03381 0.100141 -3.35076 -0.0987357 0.171435 0.0504328
318 1 0.990114 0.17194 0.0128502 0.104777 -3.34321 -0.101587 -0.107813 -0.189045
321 1 0.0187355 0.195997 0.0135266 0.415357 -3.33747 -0.0412045 -0.230119 0.223072
323 1 0.0443833 0.195401 0.0388277 0.2606 -3.34039 -0.0309982 0.0221251 0.0957033
322 1 0.0482602 0.218169 0.0159523 0.0491029 -3.31769 -0.0693887 -0.0840137 0.0537496
324 1 0.0166593 0.219164 0.037667 0.264389 -3.36577 -0.218207 -0.173182 -0.241459
327 1 0.102885 0.194134 0.0451716 0.608774 -3.3581 -0.223353 0.0253497 -0.254385
328 1 0.0736348 0.217799 0.0407225 0.192974 -3.33639 0.0738261 0.03194 0.269156
325 1 0.0772552 0.194415 0.0195924 0.315723 -3.34476 0.0441421 -0.159691 -0.192198
326 1 0.104875 0.217007 0.0208603 7.20713 -3.33877 -0.0379788 0.0576247 -0.181441
329 1 0.131012 0.193303 0.0215867 6.57323 -3.31207 0.39362 -0.177972 0.29667
335 1 0.173721 0.201825 0.0128294 7.67247 -3.24207 -0.330778 -0.121374 0.557454
332 1 0.130727 0.217462 0.045474 6.81807 -3.36601 -0.0048812 -0.280292 -0.0669111
336 1 0.168499 0.223382 0.036164 5.42583 -3.22877 -0.0321192 -0.0375499 0.00275715
330 1 0.142801 0.222328 0.0142634 6.14537 -3.22462 0.0841443 0.0818727 -0.0989204
1937 1 0.195263 0.197678 0.0395771 1.63258 -3.25449 0.197993 -0.0210294 0.0393102
339 1 0.211591 0.204298 0.00932251 7.41972 -3.23493 0.308458 -0.02059 0.355229
340 1 0.207011 0.227825 0.0308463 6.6738 -3.2669 0.0578589 0.079747 -0.225598
344 1 0.242558 0.230173 0.0170704 1.53787 -3.28897 -0.10911 -0.0472547 0.0937844
1941 1 0.234836 0.203579 0.0346928 5.86051 -3.31209 -0.0984091 -0.0647569 0.162041
343 1 0.268069 0.204161 0.0188411 0.348375 -3.33265 0.0835834 0.0826266 -0.016802
348 1 0.29756 0.2276 0.0225587 0.18986 -3.32297 0.0674723 0.0126487 -0.096972
1942 1 0.268473 0.228394 0.043398 4.98732 -3.32312 -0.0644522 -0.0753912 0.0336652
1945 1 0.294 0.202894 0.0449902 0.952153 -3.35501 -0.0378256 0.0620147 -0.0476481
342 1 0.272199 0.229384 0.996963 0.275516 -3.29896 0.185283 -0.167407 0.0472759
347 1 0.325488 0.202248 0.0239401 0.146212 -3.33791 -0.137515 0.141982 0.102081
349 1 0.356674 0.202861 0.0037621 5.46671 -3.33935 -0.0730952 -0.107012 -0.251285
352 1 0.3552 0.225005 0.0272507 6.35701 -3.30267 -0.127124 0.0948385 0.287773
346 1 0.330468 0.227793 0.00328009 1.77915 -3.33156 -0.136729 -0.0770557 -0.272523
355 1 0.419981 0.208255 0.0198093 7.21075 -3.33306 -0.0210322 -0.13044 -0.0279298
351 1 0.381237 0.200368 0.0287962 7.09503 -3.33374 0.0637408 0.172466 -0.060791
356 1 0.392068 0.230323 0.016797 6.2136 -3.31404 0.126843 -0.158851 -0.193445
1954 1 0.41759 0.230071 0.0428883 5.76947 -3.31961 -0.00320928 0.0164977 -0.0144838
360 1 0.449444 0.230271 0.0220747 0.20748 -3.32341 0.0127479 0.145983 0.034813
359 1 0.477504 0.207571 0.0251787 0.933213 -3.28163 -0.389235 0.0144136 0.128846
1957 1 0.445434 0.20748 0.0463394 6.96728 -3.32518 -0.148157 0.196993 -0.138167
358 1 0.479702 0.230527 0.00112681 0.177047 -3.28947 -0.159824 0.0572453 -0.110809
361 1 0.503681 0.205879 0.00297813 6.19276 -3.2784 0.126358 0.111423 -0.111254
363 1 0.527533 0.205873 0.0281326 6.34144 -3.30848 0.0707069 0.221749 0.116535
364 1 0.502595 0.231269 0.0271815 0.283023 -3.32045 0.352067 0.0672187 0.217572
368 1 0.554211 0.230834 0.0318184 7.30856 -3.31047 0.279189 -0.197549 -0.0362108
362 1 0.532387 0.229474 0.00555678 6.92771 -3.26986 0.108394 0.0528685 0.167461
365 1 0.541366 0.200344 0.995297 6.34213 -3.33877 0.200812 -0.0899036 0.0460306
371 1 0.623442 0.199098 0.0279173 0.306047 -3.29314 0.169923 0.0168469 -0.105475
367 1 0.566579 0.200093 0.021856 6.83861 -3.32343 -0.182151 -0.417785 0.157777
372 1 0.594037 0.22081 0.0261435 6.96318 -3.28182 0.0523961 0.364111 -0.0871063
369 1 0.598721 0.199082 0.00190246 0.168979 -3.31564 0.0284435 0.0468142 0.106119
366 1 0.569701 0.222062 -0.000144323 7.339 -3.28043 0.210294 0.0765817 -0.0181176
373 1 0.657702 0.198931 0.00670688 7.17033 -3.31251 0.217256 -0.0225211 0.0914925
375 1 0.682979 0.198916 0.031359 7.28524 -3.29986 -0.288771 -0.246086 -0.0114031
376 1 0.652709 0.221146 0.0281878 7.25639 -3.2903 0.0461896 0.171812 0.272751
374 1 0.670418 0.228749 0.999517 7.4668 -3.32488 -0.249385 -0.121171 0.138943
380 1 0.695592 0.228245 0.0265156 6.21636 -3.30955 -0.147739 0.246399 -0.212683
377 1 0.700034 0.204704 0.00286136 8.05749 -3.34373 -0.0557444 -0.0384041 -0.130019
379 1 0.723404 0.204127 0.0278638 7.59147 -3.32845 0.311287 -0.0407551 0.164508
378 1 0.727356 0.228605 0.00508512 6.67372 -3.32056 0.0257173 0.280316 0.1053
387 1 0.81366 0.195244 0.0238148 2.64284 -3.33984 0.292557 -0.486074 -0.0183227
383 1 0.767515 0.197812 0.0232068 1.12923 -3.27064 0.102991 0.121631 0.351843
384 1 0.752789 0.227709 0.0296633 6.73572 -3.36064 0.167135 0.0703888 0.280107
388 1 0.794549 0.221101 0.0242717 6.10434 -3.25947 -0.339726 0.286761 0.0905104
1989 1 0.843319 0.195207 0.0469317 0.959562 -3.35751 0.0702316 -0.00556503 0.274528
391 1 0.874009 0.194553 0.0256727 0.314737 -3.34134 0.0606622 0.0668775 0.286447
392 1 0.844685 0.218525 0.0240682 0.922819 -3.35021 0.0277971 0.0202814 -0.00772186
1990 1 0.872297 0.218776 0.0479528 0.595031 -3.33489 -0.119349 0.0125868 0.138029
390 1 0.876343 0.218568 0.00350375 0.145379 -3.34433 -0.0205365 -0.0838153 -0.107516
389 1 0.847451 0.194689 0.00260494 0.350822 -3.33592 -0.106272 -0.0672863 -0.234414
393 1 0.905163 0.194507 0.00595184 0.14752 -3.35225 -0.106228 0.0385903 -0.0942983
395 1 0.93 0.194852 0.0321216 0.409603 -3.35139 0.311077 -0.0549677 -0.265253
396 1 0.902521 0.218422 0.0281644 0.0871696 -3.32531 -0.0703503 -0.0266137 0.0281153
394 1 0.93291 0.217467 0.0081565 0.206493 -3.34378 0.176512 0.0589285 -0.265355
399 1 0.988624 0.194495 0.0354686 0.130629 -3.3574 -0.0990105 0.350461 0.047542
397 1 0.961878 0.194667 0.0101767 0.0862915 -3.33136 -0.0390169 0.136822 0.0758493
400 1 0.959701 0.217083 0.0330156 0.24658 -3.36237 0.15095 0.190645 -0.013622
398 1 0.99066 0.218055 0.0115098 0.111044 -3.35108 -0.00164152 0.0590729 0.0867697
403 1 0.0455279 0.241157 0.0384942 0.0779999 -3.33345 0.0245086 0.187727 0.0449157
401 1 0.0194444 0.241378 0.0130072 0.0900797 -3.3417 -0.123476 -0.148212 0.0916178
404 1 0.0177206 0.26476 0.0354255 0.0900297 -3.34133 0.0380483 -0.165368 0.166904
402 1 0.0496725 0.26333 0.0144641 7.44773 -3.33187 -0.124127 0.193491 -0.129072
405 1 0.0771305 0.240649 0.0174754 7.26993 -3.33397 0.146887 -0.0640216 -0.100777
407 1 0.102315 0.240998 0.0423174 7.50835 -3.33996 0.0104273 -0.131199 -0.104914
409 1 0.116579 0.247269 0.0110663 0.42 -3.29589 -0.0119365 -0.0701915 0.242275
408 1 0.0749851 0.264116 0.0385368 6.94653 -3.33087 -0.170159 0.0227503 0.282469
412 1 0.113018 0.271005 0.0334155 0.333587 -3.31692 0.41059 0.0515124 -0.0998613
406 1 0.0895921 0.271238 0.00830262 0.163417 -3.31851 0.0523013 0.0770104 -0.0414735
410 1 0.13022 0.277131 0.0038461 0.211756 -3.34868 0.0339789 0.0336448 -0.0198423
411 1 0.140653 0.246996 0.0365667 0.497387 -3.27754 0.118692 0.0981052 0.0994739
415 1 0.182883 0.25322 0.0333033 9.22439 -3.30015 0.0608632 0.0880499 0.0794106
416 1 0.154422 0.277047 0.029829 0.405928 -3.32992 0.126777 -0.0301023 -0.127623