ITEM: TIMESTEP
9000
ITEM: NUMBER OF ATOMS
32000
ITEM: BOX BOUNDS pp pp pp
3.6416165460682883e+00 7.7358383453926564e+01
-1.4277301541800185e+00 8.2427730154174156e+01
-1.4283385051794895e+00 8.2428338505175390e+01
ITEM: ATOMS id type xs ys zs c_csym c_peratom fx fy fz
8 1 0.050577 0.0251576 0.0249317 0.0249935 -3.33724 -0.190095 -0.00902054 -0.00294518
1605 1 0.0503713 4.20089e-05 0.0497599 0.020282 -3.33223 -0.0282038 0.0652186 0.0324591
12 1 0.10038 0.0251349 0.0246877 0.0194688 -3.33046 -0.0185961 0.0460008 0.0424712
7 1 0.0754893 0.000488617 0.0243513 0.0834276 -3.32076 -0.0200792 -0.113596 0.158229
9 1 0.100356 0.000167321 -0.000404408 0.0277885 -3.31871 -0.0323965 -0.00478078 0.168097
87 1 0.0750788 0.0498375 0.0249293 0.0259432 -3.33356 0.0232522 0.131542 -0.0185762
6 1 0.0754023 0.0252677 -0.000208179 0.0121761 -3.32124 -0.0738813 -0.000305194 -0.000662388
16 1 0.149813 0.0253738 0.0247735 0.0330673 -3.32725 0.037051 -0.0940939 0.118011
15 1 0.17501 -0.000291983 0.0251978 0.0302972 -3.34325 0.0231517 0.0877069 -0.0482338
1693 1 0.150191 0.0499554 0.0499465 0.0186129 -3.33364 -0.0451394 0.007357 -0.00105898
91 1 0.124763 0.0504019 0.024814 0.0255791 -3.32303 0.095667 -0.072814 0.038316
95 1 0.174916 0.0497474 0.0248008 0.0238388 -3.31776 0.069212 0.0536199 0.0752611
14 1 0.174999 0.0251813 0.000131997 0.0275424 -3.32883 -0.0279509 -0.0477172 -0.0565178
93 1 0.150264 0.0505555 6.66811e-05 0.0485813 -3.32359 0.000259557 -0.107018 -0.0945439
20 1 0.20017 0.0249531 0.0247754 0.0172763 -3.3351 -0.012428 -0.025575 0.0587288
19 1 0.225054 -8.04537e-05 0.0250907 0.01003 -3.32904 -0.010575 -0.021847 -0.0219248
1618 1 0.224934 0.0250643 0.0500867 0.0275236 -3.32567 0.0707409 -0.0735623 -0.0539511
18 1 0.225359 0.0250678 6.41296e-05 0.0174281 -3.34191 -0.0427872 -0.000714927 -0.00840087
97 1 0.200168 0.0500819 -5.34519e-05 0.0241328 -3.31577 -0.0091937 -0.0935611 0.0398161
24 1 0.250492 0.0247159 0.0251611 0.0367878 -3.32602 -0.127848 0.0918051 -0.0370459
1622 1 0.275247 0.0248826 0.0503388 0.0319527 -3.31455 -0.00621456 -0.00244996 -0.0404128
103 1 0.274857 0.049824 0.0248197 0.0271003 -3.33384 0.0412565 0.0755651 0.0453202
22 1 0.27533 0.0249955 -0.000115045 0.0104657 -3.33002 -0.0636564 -0.0239774 0.0306981
28 1 0.299932 0.0249924 0.0251381 0.0223435 -3.32369 0.034568 0.0415745 -0.0289222
26 1 0.32475 0.0250305 -9.95523e-05 0.0236095 -3.3183 0.117762 -0.0137085 0.0440386
32 1 0.349957 0.0247089 0.0251486 0.0246544 -3.32765 0.0307218 0.0469692 -0.0285194
27 1 0.324952 9.17107e-05 0.0245363 0.0319882 -3.32469 0.0787884 -0.0448215 0.104036
1626 1 0.325157 0.0251256 0.0502015 0.0220723 -3.32475 -0.0113054 -0.0476454 -0.00863793
1705 1 0.299901 0.0498702 0.0498969 0.0207048 -3.33298 0.0027558 0.0503539 0.0297074
31 1 0.375079 -0.000184771 0.0251667 0.0231992 -3.32798 -0.0354163 0.0362446 -0.0228954
30 1 0.374864 0.0250884 4.19093e-05 0.013646 -3.32583 0.083656 0.0156363 -0.0318644
36 1 0.400079 0.0250116 0.0248644 0.0137032 -3.33167 -0.078065 0.00654955 0.0711527
111 1 0.374841 0.0497919 0.0249413 0.0111945 -3.33035 0.0485934 -0.0135961 -0.00271197
113 1 0.400228 0.0498572 -7.0935e-05 0.00675001 -3.31877 -0.07916 0.0324724 0.0396693
1630 1 0.374778 0.0249128 0.0503161 0.0326959 -3.33305 0.10275 -0.0110679 -0.0704276
115 1 0.425357 0.0499312 0.0247131 0.0279949 -3.33604 -0.0400983 0.0736516 0.109264
35 1 0.424885 -0.000318676 0.0250926 0.0411234 -3.32241 0.0468202 0.0922963 -0.0353458
34 1 0.424946 0.0252127 9.13378e-05 0.0232196 -3.31676 0.0554482 -0.105422 -0.0307398
40 1 0.45005 0.0250118 0.025075 0.0130732 -3.32471 0.000916809 -0.0452621 -0.0147137
1634 1 0.424926 0.0250765 0.0495112 0.0446702 -3.32511 -0.0231971 -0.0274724 0.12561
1717 1 0.450061 0.0497157 0.0503854 0.0398067 -3.32904 0.0608072 0.103249 -0.132278
44 1 0.499889 0.0253689 0.024635 0.0373056 -3.31399 0.053022 -0.107091 0.0594046
123 1 0.524869 0.0502149 0.0250115 0.00706327 -3.33793 0.0582121 0.0173733 -0.0474278
1721 1 0.4998 0.0499215 0.0501068 0.0148469 -3.32398 -0.0249231 0.108195 0.000211844
48 1 0.550307 0.0253273 0.0251735 0.0354252 -3.33842 -0.0705663 -0.00296616 -0.0925954
127 1 0.575069 0.0503542 0.0249315 0.0191835 -3.33855 -0.0188994 -0.11773 0.00584429
1645 1 0.550478 0.000540436 0.0496322 0.0707577 -3.33214 -0.170987 -0.10498 0.0743382
47 1 0.575065 0.000142274 0.0248052 0.0135147 -3.33485 0.0717751 -0.0481215 -0.0686188
1646 1 0.57521 0.0252275 0.0501153 0.0134724 -3.3234 -0.000368579 0.0717435 -0.0621911
52 1 0.60035 0.0250082 0.0249696 0.0164849 -3.33643 -0.108804 0.0118577 -0.00575843
129 1 0.600371 0.0498481 0.000184663 0.0413659 -3.32775 -0.0955217 -0.0207099 -0.0856482
131 1 0.624902 0.0501489 0.0251139 0.0143198 -3.32587 0.0798409 -0.0532097 0.0328145
1650 1 0.624922 0.0251132 0.0503884 0.0234676 -3.33082 0.0640113 -0.0652002 -0.105303
56 1 0.650351 0.0251486 0.0253982 0.0309574 -3.34194 -0.139978 -0.0366005 -0.0481791
60 1 0.699294 0.0250856 0.0249184 0.0585862 -3.32693 0.175847 -0.0735053 -0.0185445
1657 1 0.69956 -0.000209176 0.0503497 0.0496753 -3.33423 0.0396657 0.0401039 -0.119367
1654 1 0.675091 0.0253669 0.0498258 0.0554885 -3.30881 -0.0187004 -0.122616 0.118353
53 1 0.650227 -4.89945e-05 0.000365933 0.015528 -3.31954 -0.049598 -0.0788306 -0.0296129
64 1 0.749434 0.0248865 0.0248961 0.0293798 -3.31545 0.151378 -0.0233162 -0.0586319
59 1 0.72503 0.000131347 0.024984 0.0274056 -3.33531 -0.174773 -0.0488083 -0.0575006
1658 1 0.72476 0.0247809 0.04982 0.0151144 -3.33453 -0.054909 -1.67761e-05 0.047597
1661 1 0.749967 -0.000112081 0.0494755 0.0314341 -3.33063 0.0824741 0.0127923 0.141537
62 1 0.774612 0.0248674 -0.000196483 0.0296377 -3.33347 0.108763 -0.00434286 0.0710697
68 1 0.800086 0.0249783 0.0244857 0.0223797 -3.33336 -0.00143787 0.00406983 0.069052
67 1 0.825146 0.000369034 0.024613 0.0396902 -3.32714 -0.0776569 -0.132659 0.0933969
72 1 0.849824 0.0250067 0.0248373 0.0324666 -3.31816 0.11067 -0.0284138 -0.0103646
147 1 0.825425 0.0498518 0.0247465 0.0279664 -3.32524 -0.138682 0.0429239 0.0458334
71 1 0.875652 0.000253277 0.0249949 0.0390316 -3.3322 -0.0508048 0.0149988 0.0129365
1669 1 0.850142 0.000184457 0.0499681 0.00956001 -3.32875 -0.0646103 -0.0582279 -0.0258584
66 1 0.825188 0.0245306 -0.000422921 0.054687 -3.32949 -0.00278764 0.14326 0.0597574
149 1 0.850028 0.0502676 -0.00010064 0.0294005 -3.33388 -0.0217721 -0.0900954 -0.0402326
76 1 0.899998 0.0255753 0.0251193 0.0448124 -3.31712 0.0514189 -0.0954225 0.0120984
74 1 0.924906 0.0252441 -4.86372e-05 0.0162393 -3.3212 0.0290531 -0.0192023 0.0321426
155 1 0.925309 0.0502699 0.0248226 0.0257803 -3.32898 -0.0400614 0.00510234 0.111977
4 1 1.00017 0.0253241 0.0249968 0.0118283 -3.34178 -0.0430582 -0.0533905 -0.0129736
80 1 0.950313 0.0252235 0.0246964 0.0329707 -3.3291 -0.019439 0.0272092 0.0567209
1678 1 0.974861 0.0252807 0.0501239 0.0168576 -3.33574 0.0582022 -0.0657357 -0.0097338
78 1 0.975197 0.0251232 -0.000145538 0.012764 -3.32539 -0.0357797 0.0130302 0.090655
159 1 0.97513 0.050346 0.025123 0.0208183 -3.32928 -0.0988719 -0.0888657 -0.0611589
1 1 0.99987 -4.02729e-05 3.21633e-05 0.0114084 -3.33375 0.0665179 0.0123861 0.0707827
81 1 0.999856 0.0500182 -0.000202217 0.0200728 -3.32908 0.0518793 0.0641509 0.0858084
83 1 0.0253859 0.0502621 0.02496 0.0225716 -3.33545 -0.0582819 -0.100356 -0.0412785
88 1 0.0501223 0.0751621 0.024953 0.0155659 -3.32204 0.0302139 -0.0716666 -0.00757571
82 1 0.0252081 0.0749125 -1.10398e-05 0.0136538 -3.33202 -0.0399955 0.0417899 0.000592816
163 1 0.0248102 0.0996627 0.0254302 0.0513825 -3.32373 0.0338597 0.0896308 -0.126196
1765 1 0.0502083 0.0995809 0.0500551 0.0424369 -3.33222 -0.0607835 0.101662 -0.00242155
165 1 0.0500734 0.0998452 0.000174747 0.033583 -3.32389 -0.0983531 0.0667018 -0.112562
92 1 0.100467 0.0751457 0.024599 0.0419599 -3.33108 -0.171238 0.0463408 0.0430078
86 1 0.0747958 0.0751983 -0.000393563 0.0259989 -3.33289 0.109976 -0.0210961 0.0636287
167 1 0.0749883 0.100159 0.024655 0.0166776 -3.32703 0.0747721 -0.0554396 0.0704363
96 1 0.15017 0.0750414 0.0249559 0.0106577 -3.33724 -0.0649876 0.0345605 -0.0189929
1773 1 0.150275 0.0999103 0.0502022 0.0401395 -3.33553 -0.102913 0.0537998 -0.107723
173 1 0.150336 0.0998028 -0.000463086 0.039997 -3.34079 -0.0450609 0.115071 0.0813354
94 1 0.175407 0.0750766 -0.000278152 0.0327858 -3.31455 -0.0524356 -0.0232315 0.0433502
100 1 0.199757 0.0745047 0.0249258 0.0607981 -3.33416 0.104178 0.1254 0.0846272
99 1 0.225395 0.0500328 0.0251257 0.0253576 -3.33721 0.00409626 -0.0584551 -0.038082
98 1 0.224734 0.0747674 -3.13894e-05 0.0247445 -3.32237 0.0594142 0.066328 0.00456356
104 1 0.249834 0.0751245 0.0249897 0.0298321 -3.3262 0.0787786 -0.0606182 0.0315563
101 1 0.250355 0.0502869 -0.000268794 0.0450279 -3.33075 -0.0944401 -0.0997763 0.0432309
102 1 0.275182 0.0748647 6.59471e-05 0.0153504 -3.32601 0.0060455 0.0522633 -0.0426303
107 1 0.325182 0.0496831 0.0250579 0.0123077 -3.33462 -0.0467709 0.0414119 -0.0167168
108 1 0.300145 0.0748493 0.0249211 0.00541921 -3.33306 0.0169107 -0.063583 0.027581
187 1 0.325124 0.099744 0.0246634 0.0370507 -3.33559 0.0239286 0.0779299 0.120499
106 1 0.325371 0.0748689 8.63648e-05 0.0168204 -3.33016 -0.0285895 0.00418906 0.00583375
112 1 0.35005 0.0746211 0.0252038 0.0189546 -3.32713 0.0159591 0.0871937 -0.0395194
1785 1 0.300137 0.0998349 0.0499557 0.0120664 -3.3338 0.046808 0.0131787 -0.0298358
185 1 0.300193 0.100073 4.53918e-05 0.0251515 -3.32416 -0.0330251 -0.0700788 -0.0652422
109 1 0.349866 0.04976 -6.42843e-05 0.00867285 -3.32762 0.0241631 0.0361891 0.00526943
189 1 0.350383 0.100059 7.16e-05 0.0230312 -3.3313 0.00278578 -0.0602901 0.0107189
191 1 0.374936 0.0999173 0.0255014 0.0391873 -3.33382 0.026703 0.0305537 -0.135353
110 1 0.375122 0.0747241 0.000173088 0.0121194 -3.33487 -0.063299 0.0313267 -0.038978
116 1 0.399915 0.0750667 0.0249456 0.0167067 -3.34027 0.0783404 -0.0500459 0.0337164
193 1 0.400066 0.099872 -0.000105664 0.0211596 -3.33706 0.000626677 0.0410846 0.136512
120 1 0.450327 0.0750062 0.0253427 0.0263206 -3.34117 -0.0109286 -0.0231358 -0.0737984
195 1 0.425016 0.0999891 0.0252633 0.0115935 -3.32952 -0.0383783 -0.0162623 -0.0845524
119 1 0.475051 0.0497938 0.0250896 0.017964 -3.32936 -0.0626192 0.135694 0.0112679
1718 1 0.474968 0.0752455 0.0503933 0.0322981 -3.33911 -0.00310881 -0.0783294 -0.0711992
124 1 0.499701 0.0753189 0.0248366 0.0459484 -3.32925 0.0112517 -0.109127 0.0768919
199 1 0.475177 0.100116 0.0249659 0.0233358 -3.32788 -0.0456358 0.00914401 0.0915299
128 1 0.550447 0.0752334 0.0252518 0.0526998 -3.32716 -0.0575255 -0.0609065 -0.0503525
207 1 0.574868 0.100284 0.0249183 0.0245974 -3.32601 0.0716213 -0.0699001 0.00834512
1726 1 0.575456 0.0748371 0.0502178 0.0611658 -3.3262 -0.176028 0.085862 -0.0240407
132 1 0.600032 0.075044 0.0249087 0.00743996 -3.3186 -0.0599439 0.0430053 0.0386953
211 1 0.624771 0.100136 0.0249517 0.011654 -3.32848 -0.00195778 0.0335195 -0.0368195
1729 1 0.599944 0.0500841 0.0499877 0.0105063 -3.32181 0.0583644 -0.0226708 0.0365628
1730 1 0.625112 0.0751176 0.0497588 0.0172279 -3.32676 -0.138343 -0.0218844 0.0613357
1809 1 0.599786 0.100236 0.0497505 0.0287968 -3.33487 0.0667711 -0.0344196 0.0740675
135 1 0.675201 0.0503978 0.0250114 0.0387632 -3.32061 -0.100836 -0.0805941 -0.0387653
1737 1 0.699778 0.0500288 0.0500546 0.0147366 -3.32188 0.0870448 -0.0274008 0.0135357
136 1 0.650061 0.0751461 0.0249144 0.012735 -3.32499 -0.0571468 -0.0544066 -0.0198908
140 1 0.700077 0.0750183 0.0247366 0.0147648 -3.31535 -0.00346458 -0.0314401 0.00731076
1734 1 0.675152 0.0750083 0.0498286 0.0140317 -3.33582 -0.0366513 0.0390658 0.0469326
139 1 0.724795 0.0496255 0.0249829 0.0204513 -3.32783 -0.029401 0.0675618 -0.00935774
144 1 0.749719 0.0746381 0.0247188 0.0195366 -3.33213 0.018734 0.0857935 0.0844029
138 1 0.725084 0.0751258 -7.70303e-05 0.0114715 -3.32558 -0.0319333 -0.0270557 0.0109384
1821 1 0.749643 0.0995569 0.0494927 0.026963 -3.34042 0.0476246 0.0373854 0.0929264
143 1 0.774642 0.0497372 0.0250253 0.0185425 -3.3289 0.0676324 0.00612667 -0.0450675
148 1 0.799954 0.0748493 0.0248047 0.0101577 -3.33371 -0.000292537 -0.033137 0.0291696
142 1 0.774941 0.0749133 0.000262564 0.0142924 -3.33077 0.0587541 -0.00954472 -0.077128
151 1 0.874765 0.049907 0.0251321 0.0246919 -3.32311 0.0402054 0.0812126 0.024606
227 1 0.824782 0.0997694 0.024651 0.02842 -3.33917 0.0403009 0.04387 0.0692908
152 1 0.850036 0.0747368 0.025155 0.0299647 -3.33004 -0.0213643 0.130742 -0.0418554
231 1 0.874899 0.100187 0.025082 0.0133694 -3.32433 -0.0203169 -0.118664 -0.0352611
150 1 0.874778 0.0752672 0.000302178 0.0307721 -3.3249 0.0473836 -0.0273619 -0.0713275
1829 1 0.849903 0.0998984 0.05006 0.00825423 -3.32848 -0.0114886 -0.018291 -0.0303413
146 1 0.824723 0.0750533 -0.000457986 0.0502089 -3.32275 0.0868879 -0.0296224 0.16325
156 1 0.899935 0.075213 0.0247731 0.0233815 -3.33962 -0.014618 -0.0518744 0.0942728
154 1 0.925183 0.0749658 -0.000307677 0.0232372 -3.32237 -0.020846 0.0373201 0.0246701
235 1 0.925406 0.0997185 0.0249489 0.0454163 -3.32863 -0.141404 0.136807 0.020673
84 1 0.999979 0.0749383 0.0251541 0.0141562 -3.32704 0.0114787 0.0203789 -0.0455654
160 1 0.950234 0.0751536 0.0249378 0.0188832 -3.31415 -0.0641328 -0.0506918 0.0515749
1837 1 0.950056 0.100119 0.0501731 0.024203 -3.32587 -0.013351 0.101962 -0.0254228
157 1 0.949764 0.0502466 -0.000248606 0.0321876 -3.32921 0.147681 -0.0677808 0.043971
237 1 0.950106 0.0997764 0.000191564 0.022483 -3.31706 0.0077334 0.113972 -0.0697219
239 1 0.97535 0.100206 0.0251437 0.016693 -3.32579 -0.0548456 -0.00980167 0.017605
1758 1 0.974556 0.0754682 0.0499363 0.0607062 -3.33362 0.117562 -0.150496 0.0864916
161 1 1.00009 0.0999251 -5.62025e-05 0.0175592 -3.32571 0.0767288 -0.0405566 0.0551607
168 1 0.0495355 0.124777 0.0244739 0.0828947 -3.33486 0.0618318 0.0644443 0.17182
164 1 9.86089e-05 0.125071 0.0254077 0.0196092 -3.32967 0.0325412 0.0200819 -0.0510343
243 1 0.0246746 0.150167 0.0250939 0.0212178 -3.33091 0.0556417 -0.0342203 -0.0344093
245 1 0.0498157 0.150074 -0.000163871 0.0125335 -3.32563 0.0590039 -0.0688301 0.0597296
172 1 0.0998564 0.125122 0.0249434 0.00923972 -3.3114 0.00604938 -0.0180137 -0.026677
247 1 0.0747946 0.150038 0.0249701 0.0134078 -3.33191 -0.0148863 -0.0177188 -0.0391419
1849 1 0.100138 0.150117 0.0496758 0.0183966 -3.33096 -0.0126412 -0.0380346 0.0437555
1766 1 0.0748566 0.124983 0.0498843 0.0134015 -3.3323 -0.0593093 0.00373836 -0.041366
249 1 0.0998408 0.149818 -6.82098e-06 0.0193149 -3.33356 -0.0188177 0.0661674 -0.0999455
175 1 0.175002 0.0998779 0.0250627 0.016359 -3.33816 0.0355176 0.0525838 -0.0214841
171 1 0.124932 0.100382 0.0247706 0.0301926 -3.34119 0.141882 -0.0885594 0.0315373
176 1 0.150198 0.12502 0.0247749 0.0213989 -3.32388 -0.0623032 -0.0698681 0.0535742
170 1 0.124911 0.125082 -0.0002824 0.012725 -3.33997 0.0237916 -0.00259914 -0.00430271
251 1 0.124886 0.14976 0.0248573 0.0208423 -3.32089 0.00509951 0.0809564 -0.04363
255 1 0.174863 0.149968 0.0250261 0.0142047 -3.31963 0.00894465 0.0600478 0.0919262
180 1 0.200191 0.125376 0.0249651 0.0258759 -3.33078 0.0155847 -0.119074 0.0797425
179 1 0.225047 0.0999979 0.0253834 0.0207766 -3.34007 -0.0249648 0.0221549 -0.0613463
259 1 0.225506 0.150324 0.024811 0.0364224 -3.32573 -0.0388488 -0.0515214 -0.0014881
257 1 0.199902 0.149914 0.000281552 0.0255063 -3.32643 0.142302 0.0597443 -0.110078
183 1 0.275198 0.0995898 0.0248709 0.0374638 -3.33541 -0.03793 0.134095 0.062009
184 1 0.250181 0.125112 0.0252945 0.0232842 -3.34353 0.0282671 -0.0899861 -0.0976438
182 1 0.275262 0.124611 9.34601e-06 0.0176538 -3.33712 -0.035988 0.0594464 0.0346256
261 1 0.250322 0.149631 1.32188e-05 0.0323313 -3.32564 0.00698989 0.0395942 0.0140303
181 1 0.249869 0.0996531 0.000148498 0.0156454 -3.33147 0.0379221 0.0714567 -0.0155812
188 1 0.30009 0.125246 0.0252578 0.0356244 -3.33527 0.0238236 -0.102592 -0.0506657
186 1 0.325192 0.124825 -5.44464e-05 0.0113295 -3.3315 -0.00780774 0.0522836 -0.011057
192 1 0.350136 0.125181 0.0249117 0.0142832 -3.32361 -0.0137896 -0.0787559 0.0513295
267 1 0.325429 0.149986 0.0251289 0.0127731 -3.32916 -0.0903686 0.0303859 0.0179412
1786 1 0.325208 0.124928 0.0500242 0.0118364 -3.33143 0.000531218 0.0511764 -0.0134309
196 1 0.400112 0.12519 0.0251952 0.00792038 -3.33031 -0.0189046 -0.0622225 -0.0368236
200 1 0.450073 0.125124 0.0250724 0.00766803 -3.32008 -0.00535931 -0.034103 0.016931
1797 1 0.449749 0.100279 0.0501125 0.0217415 -3.32182 0.146303 -0.0462529 -0.0218033
203 1 0.525124 0.0997495 0.0250174 0.0214681 -3.31807 -0.00725783 0.0140092 -0.00126426
204 1 0.500738 0.124627 0.0250028 0.0626911 -3.33178 -0.119893 0.127466 0.0398434
202 1 0.525304 0.124965 -5.02804e-05 0.0134848 -3.32702 -0.0908853 0.00753644 -0.0254717
201 1 0.499924 0.0998406 -0.000245468 0.0367642 -3.32994 0.105059 0.0314232 0.0175236
279 1 0.47504 0.149952 0.0251638 0.0108759 -3.33637 0.0678806 -0.0252782 -0.0437873
283 1 0.525344 0.150272 0.0250565 0.0347783 -3.32867 -0.0816316 -0.0862399 -0.00645081
208 1 0.549918 0.12494 0.0249 0.0137266 -3.3205 0.0048767 0.0220207 0.0195966
1885 1 0.549631 0.149891 0.0502787 0.0370352 -3.31446 0.11625 0.0456083 -0.0696269
1806 1 0.574874 0.125074 0.0499893 0.00994624 -3.32936 -0.05503 -0.0184815 0.0612875
285 1 0.550215 0.150062 -8.64158e-05 0.0169689 -3.33193 -0.115226 -0.00857765 -0.015685
212 1 0.599696 0.125406 0.0250812 0.0340225 -3.32658 0.100568 -0.0750042 -0.0382651
215 1 0.675001 0.0997718 0.0249035 0.0127591 -3.32865 0.00338194 0.0548372 -0.0335543
216 1 0.650229 0.124937 0.0247773 0.0377357 -3.33057 -0.0310466 0.0142333 0.0704381
220 1 0.699751 0.124809 0.024833 0.0116334 -3.33816 -0.032548 0.111997 -0.0415951
295 1 0.674642 0.150261 0.0253959 0.0583457 -3.33657 0.0337122 -0.0833897 -0.0937311
219 1 0.724547 0.0998957 0.024844 0.0229512 -3.32673 0.146958 0.00398091 -0.0876363
224 1 0.749919 0.124944 0.0246994 0.0129313 -3.33824 -0.045183 0.00205232 0.0429162
299 1 0.724926 0.150196 0.0248507 0.0227006 -3.32865 0.000423822 -0.129383 -0.0196857
223 1 0.77493 0.0998556 0.0250127 0.0102226 -3.33683 0.0346477 -0.0400507 -0.000106649
222 1 0.775173 0.124848 0.000213803 0.0251752 -3.32595 -0.0376333 0.0842399 -0.103688
228 1 0.799854 0.125056 0.0250729 0.0176358 -3.32835 0.0728969 -0.0414811 -0.061493
225 1 0.799903 0.100164 -0.000119076 0.0126478 -3.32225 0.0392054 -0.0420919 0.0201556
1825 1 0.800216 0.0998859 0.0501222 0.0277841 -3.32548 -0.104438 0.00175938 -0.06954
307 1 0.824854 0.150023 0.0249875 0.00686491 -3.33089 -0.0175148 -0.0248664 -0.0538188
232 1 0.850072 0.12483 0.0249346 0.0107774 -3.32597 -0.046645 0.0664689 -0.0461083
311 1 0.875112 0.150202 0.0250132 0.0159383 -3.32876 -0.0298359 -0.0679262 -0.0446837
1830 1 0.87447 0.125025 0.050011 0.023894 -3.32438 0.104663 0.0242936 0.04176
236 1 0.899602 0.124948 0.0250667 0.0320945 -3.33062 0.133188 0.0139165 -0.00914449
1913 1 0.899673 0.150324 0.0500755 0.0223529 -3.32651 0.0113478 -0.110387 -0.0261362
315 1 0.92468 0.150052 0.0251133 0.0233227 -3.33727 0.106829 -0.0262661 0.0423323
1834 1 0.924824 0.125121 0.0495239 0.0468837 -3.33375 0.0280313 -0.0066446 0.0974849
313 1 0.900641 0.150183 -2.25413e-05 0.0658704 -3.32889 -0.131951 -0.0595318 -0.00148335
240 1 0.950156 0.124962 0.0250411 0.00594743 -3.33718 0.0183063 0.025186 0.0285692
238 1 0.975494 0.124708 0.000199361 0.0585163 -3.32622 -0.138832 0.121961 -0.00887471
1917 1 0.950116 0.150088 0.0501851 0.0199163 -3.32953 -0.0892774 0.0178814 -0.0830924
319 1 0.974872 0.150055 0.0250244 0.0115836 -3.33051 0.0541293 -0.00981919 0.0470118
317 1 0.949989 0.149826 0.000118428 0.0225332 -3.33843 -0.00821872 -0.00375313 -0.0321644
1838 1 0.975133 0.125385 0.0504122 0.0348752 -3.32855 -0.0193903 -0.0736293 -0.0721089
248 1 0.0498001 0.175104 0.0250937 0.0169391 -3.33343 0.11383 -0.0443519 -0.00298737
323 1 0.0249719 0.199621 0.0250945 0.0208884 -3.3181 0.0299187 0.0859604 0.0395242
242 1 0.0251428 0.17477 9.45011e-05 0.0293634 -3.31702 -0.0383901 0.0375458 0.0144271
252 1 0.0998054 0.174984 0.0247276 0.0120373 -3.33821 0.0207852 0.00584921 0.0625814
327 1 0.0750559 0.200106 0.0251237 0.0207037 -3.3353 -0.0591636 -0.0709677 -0.0305907
1846 1 0.0750575 0.175011 0.0501116 0.0113563 -3.32391 -0.0257882 -0.0341188 -0.10262
246 1 0.0747938 0.174848 -0.000254619 0.0151564 -3.33173 0.0461986 0.0327939 0.0569289
256 1 0.149623 0.174727 0.0251968 0.0336779 -3.3327 0.0698815 0.0459928 -0.136968
331 1 0.124908 0.200037 0.0250195 0.00520942 -3.33112 -0.0549298 -0.0170089 -0.00389797
335 1 0.174734 0.199825 0.0249532 0.0183372 -3.33606 0.0983243 -0.0214681 0.0157702
1850 1 0.125015 0.175247 0.0498187 0.028777 -3.31907 -0.0981441 -0.0545531 -0.00570578
333 1 0.150009 0.199754 0.000242391 0.020296 -3.33248 0.0154309 0.0506282 -0.0435555
1857 1 0.200307 0.15012 0.0497169 0.0204252 -3.3377 -0.0392317 0.00784768 0.0780139
260 1 0.20021 0.17484 0.0250318 0.0137966 -3.32807 -0.0438077 0.0644763 -0.0105079
1858 1 0.225048 0.175095 0.0496907 0.0145271 -3.31824 -0.00520765 -0.0291517 0.00040616
1937 1 0.199864 0.200148 0.0500554 0.0128179 -3.33391 0.0175698 -0.0397059 -0.0354064
339 1 0.224981 0.199898 0.0251077 0.018839 -3.33324 0.0300891 0.0590474 -0.046583
337 1 0.20013 0.199797 -4.96379e-05 0.0127269 -3.33555 -0.00481919 0.0591263 -0.0190976
263 1 0.275385 0.150142 0.0251419 0.0180104 -3.32433 -0.0522921 -0.0351201 -0.0671715
264 1 0.250408 0.175415 0.0247408 0.0425833 -3.32352 -0.0426082 -0.0725016 0.0493643
343 1 0.275456 0.200329 0.0250304 0.0236368 -3.32701 -0.0284237 -0.0176503 -0.0037894
1941 1 0.250129 0.19983 0.0498825 0.0281093 -3.328 0.0163828 0.129656 -0.0414573
262 1 0.275016 0.17483 0.000162144 0.0342262 -3.33193 0.0994945 0.0580399 -0.0717815
268 1 0.300111 0.175173 0.0252538 0.0121579 -3.32737 0.0252098 -0.031382 -0.0824704
265 1 0.300517 0.149975 0.000249236 0.0170929 -3.33181 -0.0524418 -0.0113734 -0.0510115
272 1 0.350378 0.174976 0.0252297 0.0177817 -3.32201 -0.0475446 0.0629889 -0.00727037
1869 1 0.349848 0.150424 0.0503446 0.0554883 -3.32782 0.0743593 -0.0943898 -0.0522705
271 1 0.375106 0.149995 0.0253457 0.0201693 -3.3275 -0.00717614 0.0587237 -0.0539578
1873 1 0.400234 0.150211 0.0499153 0.0194002 -3.33647 0.0462004 0.000897955 0.0397125
276 1 0.400248 0.174953 0.0250554 0.019746 -3.33868 -0.0214214 0.0740717 0.0454188
1870 1 0.375078 0.175505 0.0503752 0.050607 -3.32433 0.0758267 -0.137357 -0.0597277
1953 1 0.400048 0.20006 0.0499897 0.0213307 -3.32926 0.0457535 0.0326496 -0.0311276
275 1 0.425333 0.150218 0.0248343 0.0214382 -3.32098 -0.0130543 -0.0211607 0.10134
355 1 0.425192 0.200224 0.0246464 0.0354697 -3.33238 -0.0152401 -0.0637252 0.0935936
1874 1 0.425103 0.175251 0.0503365 0.0310064 -3.33387 -0.0244305 -0.0499837 -0.0772565
280 1 0.450179 0.175094 0.0252116 0.00904851 -3.33455 0.00083211 0.0126677 -0.0542495
277 1 0.450046 0.149816 -2.72265e-05 0.0194114 -3.33495 0.0456184 0.0499856 -0.0249919
284 1 0.499888 0.174874 0.0251199 0.0227321 -3.33577 0.1175 0.00720821 0.0248601
363 1 0.525267 0.200229 0.0247925 0.0517134 -3.32198 -0.0881207 -0.158435 0.123365
359 1 0.47539 0.199966 0.0252975 0.0181549 -3.32725 -0.074558 0.0358941 -0.0894392
1878 1 0.475162 0.175116 0.050033 0.012789 -3.32663 0.0217338 -0.0420977 0.0325382
1961 1 0.500264 0.200026 0.0502241 0.0167215 -3.32717 0.01591 -0.0346666 -0.0592785
288 1 0.549805 0.174983 0.0250696 0.00845063 -3.32262 0.0233476 0.0430825 0.0349773
287 1 0.574581 0.15003 0.0249872 0.0157827 -3.3275 0.0559143 0.038838 0.000937507
1886 1 0.574748 0.174726 0.0498809 0.03067 -3.33518 0.02006 0.0960914 0.0795411
292 1 0.599653 0.175241 0.0249968 0.0363478 -3.33104 0.0356388 -0.1721 0.0467259
291 1 0.625232 0.149911 0.0253267 0.0333653 -3.33723 -0.0399177 0.0427061 -0.0874427
371 1 0.624823 0.199486 0.0252683 0.0447354 -3.30781 0.0108868 0.185651 -0.0194717
1889 1 0.599807 0.149923 0.0497432 0.0268091 -3.32626 0.0294509 0.0511121 0.0842049
1890 1 0.625068 0.174873 0.0499198 0.0261262 -3.33244 -0.0367209 0.00528262 0.0963135
1969 1 0.600145 0.200028 0.0503321 0.0316928 -3.32672 -0.0923843 -0.0570145 -0.0532233
296 1 0.649841 0.17517 0.0252184 0.0212622 -3.31726 0.0664328 -0.109058 -0.0421498
1973 1 0.649769 0.200034 0.049794 0.022844 -3.3263 0.0685948 -0.0291004 0.112052
293 1 0.650034 0.150165 9.51256e-05 0.00980708 -3.33192 0.00297156 -0.00842958 0.0107285
300 1 0.700098 0.174858 0.0251022 0.0168127 -3.33642 -0.0398892 0.0680905 -0.0140155
375 1 0.674853 0.199732 0.0251405 0.0134969 -3.32222 0.0163506 0.0175235 -0.0577758
297 1 0.699512 0.150156 4.80579e-05 0.0300503 -3.33809 0.0975492 -0.0715692 0.0572273
294 1 0.674899 0.175141 1.62964e-05 0.0177942 -3.32382 -0.0632435 -0.00829593 0.120496
1977 1 0.699823 0.199952 0.0499112 0.0150725 -3.32746 0.0204289 -0.0992595 0.0603797
1901 1 0.749839 0.149527 0.0498337 0.015602 -3.33232 0.0470625 0.0310161 -0.00188711
301 1 0.749737 0.149653 -0.000161609 0.0374908 -3.33076 0.0828193 0.0398687 0.0585508
304 1 0.750104 0.174904 0.0250648 0.0126043 -3.32729 -0.0336011 0.0398478 0.0292453
1981 1 0.74993 0.199821 0.0504033 0.0247022 -3.33026 0.0476134 -0.0267516 -0.105966
305 1 0.800045 0.150133 0.000134103 0.00431124 -3.32924 0.00329492 -0.00445028 0.0278003
303 1 0.775014 0.150081 0.0249253 0.017908 -3.32568 -0.0508065 -0.0581915 -0.0245469
1902 1 0.775136 0.174724 0.0499939 0.0151693 -3.323 -0.11508 0.0515045 0.0786452
308 1 0.799804 0.175164 0.0253649 0.0290205 -3.32364 0.0690409 -0.044899 -0.168482
302 1 0.774682 0.175103 6.73894e-05 0.0143053 -3.34292 0.082625 -0.0251551 0.00738741
385 1 0.800206 0.20051 -4.63732e-05 0.0715175 -3.34264 -0.000983676 -0.150689 0.0319894
309 1 0.850139 0.14973 -0.000111998 0.0212506 -3.33065 -0.0348307 0.113507 0.0942501
306 1 0.824925 0.175138 -7.72482e-05 0.0109375 -3.34404 0.0253359 0.0044337 0.0779016
312 1 0.849799 0.174896 0.0249067 0.0163468 -3.32959 -0.0128267 0.0367 -0.026023
387 1 0.824897 0.199941 0.0251774 0.0121847 -3.3367 0.0371721 0.0247366 -0.0296962
391 1 0.87465 0.200061 0.0249852 0.02179 -3.3294 0.0501199 -0.0096754 0.0341687
389 1 0.850049 0.200316 -0.000185997 0.0324812 -3.33872 -0.0180504 -0.120984 0.0423964
310 1 0.875359 0.174925 0.000328801 0.0453959 -3.3403 -0.135322 0.0278204 -0.163442
316 1 0.899721 0.175153 0.0250107 0.0194704 -3.3168 0.0789723 0.00790355 0.0221924
314 1 0.925451 0.175146 0.000441835 0.0685229 -3.32806 -0.0778384 0.0111794 -0.154965
1993 1 0.899969 0.199879 0.049821 0.0110682 -3.34293 -0.00697168 0.081196 0.0229443
393 1 0.899878 0.200109 -0.000103565 0.0318529 -3.32697 0.0226112 -0.0441027 0.00705761
244 1 0.999753 0.17528 0.0253632 0.0379914 -3.32242 0.0851055 -0.122028 -0.0614626
320 1 0.95007 0.175209 0.0249251 0.014489 -3.31992 -0.0121404 -0.0682834 0.110769
399 1 0.975181 0.199963 0.0249277 0.0127186 -3.32185 -0.0444462 0.103944 0.0376033
328 1 0.0497811 0.224731 0.0254371 0.0263409 -3.32944 -0.0279592 0.0500948 -0.147745
322 1 0.0245666 0.224594 -0.0001317 0.0593241 -3.33753 0.100108 0.122055 0.0468417
324 1 0.000439425 0.224872 0.0250817 0.0350657 -3.33441 -0.12736 0.0469215 -0.018439
403 1 0.0249268 0.249887 0.0252902 0.0212147 -3.33171 0.0833604 0.0317092 -0.0648731
401 1 0.00024723 0.250287 7.30586e-05 0.0332594 -3.33051 -0.0645091 -0.123709 0.0193061
405 1 0.0497981 0.24996 3.55536e-05 0.0105816 -3.35055 0.00686241 -0.0129958 0.0590702
332 1 0.10008 0.225135 0.0250759 0.0261688 -3.33065 -0.0333312 -0.0164214 0.0788598
407 1 0.0748453 0.249862 0.0250525 0.0148185 -3.3419 0.0377664 0.0258246 -0.00850014
2009 1 0.10033 0.249538 0.0501173 0.0356373 -3.33822 -0.114904 0.0644843 -0.0390255
336 1 0.150022 0.225011 0.0251936 0.0114048 -3.3278 0.0182876 0.011631 -0.0693671
1930 1 0.125418 0.224747 0.0501672 0.0298617 -3.31969 -0.123678 0.0634819 -0.0456413
330 1 0.124862 0.225158 0.000415083 0.0245801 -3.33865 0.0823975 -0.0108862 -0.117687
415 1 0.175205 0.250106 0.0248057 0.00972162 -3.31841 -0.0466928 -0.0249447 0.0673915
411 1 0.125077 0.250067 0.0249622 0.0137323 -3.33067 0.0177477 0.0044902 0.031143
334 1 0.175138 0.224827 0.00015556 0.0142321 -3.33141 -0.0207829 0.00173522 -0.04286
413 1 0.150369 0.249935 0.000220898 0.0330584 -3.33267 -0.0600578 0.00360685 -0.0889551
340 1 0.199884 0.224791 0.0250661 0.0126982 -3.32894 0.0575551 0.0379774 -0.018046
419 1 0.225105 0.24998 0.0251466 0.00631209 -3.33813 0.0115834 0.0107785 -0.0158008
338 1 0.225156 0.2249 0.000253307 0.0176514 -3.33409 -0.0443325 0.0427682 -0.057987
344 1 0.250254 0.225167 0.025033 0.00736568 -3.3296 0.0028611 -0.0289699 0.0397567
423 1 0.275142 0.250451 0.0252006 0.0126362 -3.32828 -0.00234477 -0.0689805 -0.0207774
347 1 0.325211 0.200041 0.0252142 0.0144951 -3.34085 0.0375811 0.00229809 -0.125222
348 1 0.300162 0.225221 0.0252468 0.0118815 -3.32314 -0.0302422 -0.0190147 -0.0882582
346 1 0.325135 0.225384 0.000157582 0.0133446 -3.33065 0.001719 -0.0919864 0.00728771
1945 1 0.300184 0.199845 0.0500749 0.018107 -3.32361 -0.0297294 0.0827892 0.0398704
1946 1 0.325404 0.224986 0.0495697 0.0679533 -3.33181 -0.0778648 0.0558502 0.255793
352 1 0.350135 0.225197 0.025231 0.0155834 -3.32288 0.0162956 -0.0207466 -0.100999
1949 1 0.350568 0.200189 0.0501214 0.0192145 -3.32381 -0.0674127 -0.00202243 0.0280084
351 1 0.37505 0.200192 0.0248949 0.0214003 -3.333 0.0341464 0.0156095 0.0151037
431 1 0.375105 0.250229 0.0251546 0.0130775 -3.33303 0.0145656 -0.0250753 -0.0662801
1950 1 0.375417 0.225071 0.0501083 0.00851904 -3.32469 0.00907723 0.0257586 -0.0180991
356 1 0.40059 0.225079 0.0248819 0.0361645 -3.33771 -0.130877 0.00777306 0.0117182
2033 1 0.40026 0.250067 0.0498947 0.00749061 -3.31574 -0.0247735 0.0250832 0.00648239
360 1 0.45018 0.225012 0.0251323 0.0102663 -3.33641 0.01994 -0.00790013 -0.0207517
1954 1 0.425322 0.225102 0.0501203 0.0167115 -3.32492 0.0298646 -0.0324625 -0.0540528
2037 1 0.450703 0.250087 0.0499669 0.0422945 -3.32563 -0.0689145 -0.0502073 -0.0588244
364 1 0.500335 0.224714 0.025091 0.020748 -3.32255 -0.12212 0.0542915 0.0179903
362 1 0.524978 0.224443 0.000278372 0.060376 -3.33002 0.0852354 0.172462 -0.154656
1958 1 0.475185 0.224661 0.0504933 0.0352128 -3.32931 0.0417313 0.0850269 -0.138565