ITEM: TIMESTEP
19750
ITEM: NUMBER OF ATOMS
32000
ITEM: BOX BOUNDS pp pp pp
7.9957662398016751e+00 7.3004233760193173e+01
-3.1111038529470534e+00 8.4111103852940914e+01
-6.6439498498306335e+00 8.7643949849826754e+01
ITEM: ATOMS id type xs ys zs c_csym c_peratom fx fy fz
2 1 0.0399918 0.0223472 0.00314816 0.119699 -3.3546 -0.0433927 -0.0771239 0.174736
78 1 0.00536319 0.0222743 0.0227311 0.121558 -3.35593 -0.0647271 -0.0743527 -0.280045
81 1 0.0355351 0.0451608 0.0251861 0.05853 -3.35186 -0.0589996 0.131657 -0.0152606
159 1 -0.000109049 0.0453374 0.0435958 0.0631941 -3.36405 0.139973 0.0446831 0.0528386
79 1 -0.000265367 0.998634 0.0444932 0.0935844 -3.35299 0.133062 0.0210456 -0.0198812
8 1 0.0651386 0.0222985 0.0282989 0.0424063 -3.3525 0.0346306 -0.105493 0.0223902
3 1 0.0344511 0.999122 0.0257618 0.0814974 -3.34622 0.0748778 -0.0136456 0.00303706
1 1 0.00921181 0.998734 0.000725297 0.0957278 -3.37336 0.0729143 -0.0076173 0.137019
30559 1 0.0102538 0.0460854 9.49168e-05 0.183289 -3.35022 0.124158 -0.255363 0.0350079
12 1 0.0999331 0.0224824 0.00968196 0.0996372 -3.35651 0.0538677 -0.0830944 0.0250018
87 1 0.0701199 0.0459346 0.00624039 0.101821 -3.34031 0.198427 -0.116229 -0.0278607
1689 1 0.0950403 0.0454097 0.0308575 0.110513 -3.35058 0.191469 0.076726 -0.00118455
1609 1 0.0951083 0.998244 0.0323352 0.0846691 -3.3613 0.0325725 0.107267 -0.0919764
1610 1 0.125837 0.0222816 0.0343488 0.105116 -3.36075 -0.0505659 0.109348 0.107016
91 1 0.131688 0.0455888 0.0123476 0.102754 -3.34397 -0.0441422 -0.208786 -0.0025124
16 1 0.161896 0.0213343 0.0164251 0.299341 -3.35539 -0.0944857 0.173647 -0.139221
1614 1 0.18494 0.0221595 0.0419896 0.149749 -3.32676 -0.0025621 -0.0639991 -0.00385557
1693 1 0.156101 0.0462537 0.0379604 0.126988 -3.33556 -0.21395 -0.163414 0.02392
95 1 0.189763 0.0460865 0.0197431 0.280421 -3.30031 0.127242 -0.105805 -0.0608647
20 1 0.218242 0.0225201 0.0238107 0.790089 -3.30375 0.0603346 -0.124425 0.0053611
1697 1 0.214744 0.0458133 0.04485 0.168067 -3.35153 0.0106639 0.0455922 0.0449073
99 1 0.24987 0.0453558 0.027763 6.83215 -3.35083 -0.0312437 0.0918964 0.119782
18 1 0.2517 0.0223235 0.00569891 7.12036 -3.32826 -0.0122822 -0.23578 -0.0579567
97 1 0.225651 0.0469689 0.00197532 5.94509 -3.32459 -0.158506 -0.0966205 0.0968936
24 1 0.276812 0.0203009 0.0297501 6.77273 -3.31472 -0.149648 -0.0438886 -0.0681294
22 1 0.293973 0.0293271 0.00442061 0.365357 -3.30489 0.0633852 0.0485455 0.119923
28 1 0.318078 0.0276063 0.0291889 0.562062 -3.30006 0.04703 0.050411 -0.16278
25 1 0.318107 0.00338514 0.00627076 6.50051 -3.26368 -0.0307602 -0.0636805 -0.107963
32 1 0.361428 0.0324698 0.0266573 0.918811 -3.2616 0.0586907 -0.0437808 0.0128636
31 1 0.384932 0.00619778 0.0243242 1.85896 -3.3044 -0.168297 -0.0844155 0.0673544
36 1 0.404392 0.0357606 0.0233959 6.42328 -3.29769 0.0649113 0.221164 0.187185
35 1 0.424094 0.00790543 0.0180974 8.83995 -3.26268 0.210337 -0.0486009 0.0846576
1638 1 0.452056 0.0310047 0.0223273 7.83688 -3.29791 -0.0827966 -0.145368 0.0409842
1637 1 0.450918 0.00899141 0.0433469 7.27971 -3.31622 -0.062995 0.188325 0.0261649
1641 1 0.4903 0.0178467 0.0345067 7.40253 -3.3354 0.0569743 0.231921 0.0176363
44 1 0.488001 0.0301123 0.00635773 8.32307 -3.30228 0.111327 -0.125417 -0.0282593
43 1 0.529317 0.0222952 0.0183851 13.6317 -3.33384 -0.142116 -0.113631 0.0857736
1721 1 0.48397 0.0517745 0.0273902 9.72591 -3.28001 -0.0233082 0.154234 -0.0725594
48 1 0.561258 0.0313375 0.0364937 12.3443 -3.20854 0.129545 0.103457 0.102935
52 1 0.575218 0.0125681 0.0166589 6.14534 -3.24284 0.121699 0.264147 -0.172698
1650 1 0.599812 0.016608 0.0433619 2.86358 -3.32917 -0.0154237 -0.111616 -0.216197
131 1 0.602867 0.0382087 0.0212574 0.991516 -3.34156 0.119785 -0.0340472 0.14778
1733 1 0.631262 0.0402347 0.0469846 0.704188 -3.30896 -0.198609 0.0693068 -0.161914
56 1 0.635598 0.0163878 0.0259457 0.197357 -3.33865 -0.119378 0.0637917 -0.000767056
135 1 0.664142 0.0397717 0.0294952 6.03831 -3.24311 0.299964 0.0735617 -0.096664
133 1 0.639023 0.0392279 0.0042344 0.085325 -3.35574 -0.0217337 -0.0309558 -0.0997994
54 1 0.670862 0.0170386 0.00856955 0.139139 -3.3361 0.0235055 -0.0486698 -0.147726
60 1 0.696025 0.0174774 0.0332703 7.37399 -3.26235 -0.125609 0.0946119 0.182878
139 1 0.700127 0.041367 0.0133232 12.0319 -3.26609 -0.108709 -0.151155 -0.0346443
64 1 0.730965 0.0179341 0.0164884 12.4004 -3.24457 -0.0732884 0.00703124 -0.011547
68 1 0.7869 0.0192775 0.0215692 12.8953 -3.25615 -0.0371176 -0.249677 0.0920955
143 1 0.756922 0.0419708 0.0188347 13.5948 -3.25588 -0.12076 0.0588778 -0.0763237
1745 1 0.78286 0.0414533 0.0420776 7.32698 -3.27212 -0.0355994 0.119001 0.252165
72 1 0.848517 0.0195861 0.0279975 0.04722 -3.33829 0.0786214 0.0452725 -0.129647
147 1 0.818108 0.0424398 0.0241864 0.0391736 -3.33324 0.0680923 0.163657 0.0863678
149 1 0.853888 0.0429763 0.00632804 0.0488454 -3.35441 -0.0182607 0.0428921 -0.0244455
66 1 0.822446 0.0203786 0.00381118 0.236223 -3.35422 0.0128411 -0.227767 -0.239157
1666 1 0.812961 0.0191879 0.0454247 7.41187 -3.28352 0.079846 -0.0482874 0.138688
76 1 0.910593 0.0202585 0.03377 0.125079 -3.34412 -0.170577 -0.0367408 0.13242
70 1 0.88337 0.0195694 0.00935853 0.122814 -3.35083 0.000796758 0.19083 0.169583
151 1 0.88023 0.0430574 0.030707 0.0593868 -3.35295 -0.0623988 -0.115054 -0.0685685
153 1 0.915033 0.0435969 0.0123087 0.0934203 -3.35709 -0.131607 0.103306 -0.00372156
74 1 0.945128 0.0217842 0.0166161 0.249175 -3.34252 0.012689 -0.209581 -0.287177
80 1 0.970703 0.0215608 0.0404887 0.103167 -3.33395 0.0242184 0.115386 0.0784584
155 1 0.93981 0.0441673 0.0372686 0.0904254 -3.34049 0.204374 0.168406 -0.0503747
157 1 0.975816 0.0454139 0.0183157 0.200476 -3.35083 -0.114241 -0.113033 0.152485
75 1 0.941844 0.997588 0.0384659 0.351897 -3.33874 -0.253141 0.205161 -0.138899
158 1 0.00545966 0.0687415 0.021981 0.0562676 -3.33766 -0.0302889 -0.0755354 -0.0361194
161 1 0.0344122 0.0919824 0.0244502 0.161716 -3.33551 0.294991 -0.0370755 0.0694664
239 1 0.999708 0.091351 0.0432616 0.0248102 -3.36209 -0.0578057 0.00971304 0.0271182
30484 1 0.0414815 0.0689091 0.00367263 0.228656 -3.35012 -0.185832 0.0719228 -0.316162
82 1 0.0659301 0.0689272 0.0276905 0.0914821 -3.34762 -0.0169453 0.132163 0.0205164
92 1 0.102221 0.0688865 0.00868101 0.163889 -3.34068 -0.1568 -0.00191486 0.0222255
167 1 0.0951951 0.0923416 0.030429 0.117567 -3.36324 0.0600142 -0.0695342 0.112394
165 1 0.071949 0.0922462 0.00464153 0.454411 -3.33906 -0.226831 -0.0587207 0.20378
1690 1 0.125666 0.0692669 0.0333114 0.227885 -3.34387 -0.0975988 0.0269372 0.322134
171 1 0.131201 0.0935018 0.0122474 0.167895 -3.34043 -0.0153501 -0.0169108 0.0274434
96 1 0.160123 0.0687261 0.0159113 0.274437 -3.3048 0.0193819 0.297374 -0.0986854
1694 1 0.184822 0.0698822 0.0409352 0.117497 -3.33978 0.100005 -0.03474 0.0737979
1773 1 0.155191 0.0936063 0.0378155 0.119626 -3.34327 -0.0486182 -0.165486 -0.138508
175 1 0.190211 0.0934744 0.0199616 5.43759 -3.32611 0.0297398 0.0410917 0.0649342
100 1 0.221841 0.0704498 0.0238657 6.67272 -3.37231 0.0366389 -0.119434 0.0854176
1777 1 0.215616 0.0937128 0.0443308 5.5302 -3.35109 0.0423319 -0.0289746 0.118597
104 1 0.267959 0.0767688 0.0239058 0.163246 -3.29733 -0.0656838 0.122027 0.0140337
103 1 0.293593 0.0533029 0.0266297 0.331406 -3.28837 0.0627272 -0.22887 0.0661088
108 1 0.31266 0.083473 0.0212554 0.561872 -3.34386 -0.085291 0.145011 0.293255
101 1 0.268585 0.0540906 0.00296175 0.359727 -3.27529 0.0840747 0.0209703 -0.156171
107 1 0.336261 0.0574889 0.0246662 0.477522 -3.25191 0.0501087 0.12626 0.498002
112 1 0.355636 0.0925524 0.0179077 7.15422 -3.36191 -0.039477 -0.20089 -0.0578934
1706 1 0.337858 0.0829857 0.0456995 0.646742 -3.36264 -0.116716 -0.180536 -0.233454
1710 1 0.381295 0.0911073 0.0410423 7.21598 -3.37584 0.00586222 -0.0907902 0.0695806
111 1 0.378882 0.0635496 0.0237235 5.48171 -3.24769 0.209492 0.132508 -0.227157
116 1 0.397991 0.0897092 0.0119218 3.51887 -3.30085 0.0655346 -0.334928 0.096302
115 1 0.409556 0.0594084 0.00326734 1.52871 -3.31816 -0.0731642 0.198598 0.0829991
1713 1 0.403064 0.0615472 0.0467799 5.26527 -3.25872 0.0243567 0.172189 0.119132
1714 1 0.424671 0.087961 0.0370894 4.96426 -3.28778 0.0128816 -0.165059 -0.0313277
1717 1 0.434488 0.0589133 0.0279441 1.69714 -3.25212 0.103272 0.0316451 -0.419463
119 1 0.456757 0.0539664 0.00216074 7.23283 -3.3384 -0.199778 -0.0803765 -0.114045
120 1 0.440788 0.0828918 0.00887748 0.237661 -3.34319 -0.0675805 0.0741557 0.0104425
1718 1 0.4672 0.0811496 0.0333901 0.97619 -3.29309 0.0650095 0.340111 -0.0105499
124 1 0.509338 0.0785695 0.0293588 7.81968 -3.25001 -0.123551 0.0665789 0.0564864
118 1 0.484021 0.0786053 0.00647886 7.70547 -3.32995 0.154475 -0.229845 -0.314648
121 1 0.518691 0.0548102 0.0103237 7.43855 -3.29668 -0.00188668 0.0713259 -0.178422
123 1 0.529245 0.0523615 0.0383008 6.07156 -3.24639 0.0319293 -0.116689 -0.0208341
128 1 0.543935 0.0821639 0.0125074 1.5842 -3.27741 0.0698156 -0.0440244 -0.0248286
1726 1 0.568592 0.0831728 0.036658 1.41333 -3.30624 0.144985 0.212825 -0.0889129
127 1 0.568226 0.0567538 0.0193942 7.1078 -3.31459 0.0417786 0.161562 0.071243
1729 1 0.600856 0.0625899 0.0411369 1.77847 -3.27802 0.0241653 -0.0597003 -0.10771
132 1 0.604263 0.0858604 0.0204222 0.542062 -3.30583 -0.0731024 -0.0239982 -0.0651159
1730 1 0.632057 0.087823 0.0438448 5.92519 -3.30867 -0.0774504 -0.232628 0.180992
136 1 0.634246 0.0627312 0.0244316 7.03999 -3.23746 -0.142423 -0.0131107 0.0732834
1734 1 0.662919 0.0658332 0.0467701 10.5121 -3.29616 0.0217228 -0.116545 0.102211
215 1 0.63941 0.0861536 0.00456478 6.73466 -3.28338 -0.138185 0.169573 -0.171542
140 1 0.668354 0.0636051 0.00911407 10.6709 -3.25725 0.390462 -0.0566388 -0.0444864
144 1 0.726514 0.0648583 0.016914 11.8795 -3.24461 0.100632 -0.106817 -0.188693
219 1 0.696472 0.0874396 0.0119793 12.0748 -3.28488 -0.169473 0.133722 0.110578
1821 1 0.724001 0.0885483 0.0353815 6.77777 -3.25719 -0.0174505 0.0928774 0.0754864
148 1 0.78808 0.0656778 0.0212297 0.0763054 -3.32773 0.141561 -0.0982511 -0.0699154
223 1 0.758855 0.088209 0.0177608 0.112474 -3.33599 -0.105989 0.0864681 -0.112887
1825 1 0.784719 0.0884612 0.0416961 0.124822 -3.34646 -0.119024 0.00495356 0.208807
1742 1 0.753917 0.0646214 0.0394563 7.00069 -3.26462 -0.0540738 0.0750011 0.0402117
152 1 0.849135 0.0649877 0.0274122 0.172009 -3.35777 -0.0229258 0.288218 -0.0072049
229 1 0.853833 0.0887203 0.00557511 0.0902183 -3.35381 0.0427958 0.115565 0.00505926
146 1 0.822755 0.0660178 0.00262793 0.0978219 -3.35125 0.168266 -0.0744502 0.10281
227 1 0.819631 0.0888765 0.0241945 0.120541 -3.34983 -0.0200548 -0.0386138 -0.0651527
1746 1 0.81377 0.065028 0.0457184 0.143292 -3.35974 0.0577001 0.0644113 -0.101876
156 1 0.909855 0.0665125 0.0343913 0.129002 -3.33327 0.150761 0.0968975 -0.154624
150 1 0.884754 0.0664679 0.0094643 0.0444719 -3.35886 -0.0122497 -0.0530704 -0.131237
233 1 0.915262 0.0899387 0.0121489 0.0898858 -3.34753 -0.0858039 -0.0169665 -0.0894249
231 1 0.88028 0.0892101 0.0300167 0.0877584 -3.36095 -0.153542 0.126213 0.103963
154 1 0.945116 0.0675683 0.0149843 0.0395911 -3.3567 0.0131876 -0.0426911 0.107533
160 1 0.969201 0.0679596 0.0401106 0.0830928 -3.36954 0.126783 0.0168847 0.0364639
237 1 0.974859 0.091325 0.0178434 0.0426062 -3.35894 0.125604 -0.0353894 0.0305609
235 1 0.939336 0.0905361 0.0367163 0.0432807 -3.34487 0.0798655 -0.0697914 0.100983
241 1 0.0336852 0.138923 0.0240015 0.114918 -3.34272 0.270789 -0.112647 0.0370859
238 1 0.00576229 0.115293 0.0212381 0.218789 -3.34707 -0.226675 -0.171591 -0.117834
30564 1 0.0401938 0.115259 0.00198751 0.112693 -3.35176 0.093057 0.0639697 0.104897
162 1 0.0641641 0.11452 0.0274197 0.248284 -3.34266 -0.139523 0.157545 -0.0952823
172 1 0.124752 0.116099 0.0349322 0.192153 -3.35554 -0.17164 0.0360936 -0.286037
245 1 0.091742 0.138915 0.0307247 0.340226 -3.33906 0.367072 0.0393927 -0.0320947
30643 1 0.0684956 0.138811 0.00564859 0.163907 -3.3497 -0.0175784 0.112184 -0.0509056
166 1 0.0989699 0.115873 0.00928264 0.144124 -3.34035 0.223063 0.0991283 -0.0577771
249 1 0.127833 0.14031 0.0131889 0.426268 -3.34484 -0.0953823 -0.053207 0.150559
176 1 0.160679 0.118283 0.0164578 1.10365 -3.33522 -0.160804 -0.235434 -0.0399742
255 1 0.184297 0.145361 0.0185111 5.78857 -3.31281 0.0616158 -0.0911367 -0.104078
251 1 0.152864 0.140257 0.0380294 0.394013 -3.32748 0.00861597 0.155219 -0.0257736
1774 1 0.184252 0.117696 0.0410813 0.655931 -3.32947 0.00597428 -0.116096 0.202274
179 1 0.24147 0.100525 0.0209132 1.06276 -3.30095 -0.0523353 -0.0971992 0.049737
180 1 0.212213 0.12234 0.0198158 2.20705 -3.30952 0.195083 -0.0248313 -0.0991447
1857 1 0.209728 0.144058 0.042761 6.35677 -3.32535 -0.0504286 0.0121056 0.0171953
184 1 0.255349 0.131561 0.0180779 0.495636 -3.31501 0.0147603 -0.239377 -0.378591
183 1 0.283803 0.107672 0.0191482 0.124303 -3.33758 0.126609 0.0186646 -0.0366418
188 1 0.297411 0.139583 0.0140892 4.64763 -3.32054 0.0195352 -0.103078 0.0693965
1782 1 0.28108 0.129884 0.0414347 0.0939565 -3.30287 -0.168776 0.0038192 -0.0577921
1785 1 0.309172 0.106553 0.0436504 0.0829772 -3.32384 -0.0207238 -0.190076 0.0692061
187 1 0.32593 0.116087 0.0174865 6.27195 -3.30993 0.0260946 -0.020194 -0.280044
1786 1 0.3219 0.13809 0.039527 5.23538 -3.28624 0.028948 0.074119 -0.0454886
1789 1 0.35084 0.114949 0.0406712 6.77772 -3.29668 0.0898637 -0.0963598 0.14561
192 1 0.35498 0.141222 0.0222938 5.84118 -3.22882 0.0417683 -0.00175214 -0.182218
191 1 0.383957 0.117635 0.0214433 6.93956 -3.32584 0.0383823 0.123459 -0.13765
1790 1 0.379865 0.139125 0.0451265 4.76228 -3.25043 0.123985 0.0278447 -0.1427
195 1 0.427467 0.112076 0.0171779 0.090332 -3.30363 -0.14183 0.0848677 -0.163581
196 1 0.413523 0.14176 0.0247421 6.84193 -3.34346 -0.1953 0.0166239 0.0702256
200 1 0.455571 0.135514 0.0214366 0.595189 -3.28788 0.0928443 -0.00202284 0.0275573
1797 1 0.454223 0.110417 0.0414878 0.50291 -3.30379 -0.0951766 0.225899 0.124958
1793 1 0.41069 0.116591 0.0450245 7.27473 -3.31436 -0.102091 0.013448 -0.0885023
199 1 0.469886 0.107148 0.0142259 0.370674 -3.31265 0.199592 0.0946762 -0.0876805
1801 1 0.496299 0.105137 0.0422391 2.45175 -3.31412 0.179031 -0.270665 0.146316
1802 1 0.501437 0.130134 0.0235748 6.27831 -3.29508 -0.0163996 -0.0611634 -0.244288
203 1 0.512048 0.103769 0.0092171 6.07205 -3.31319 -0.16228 0.105794 -0.0636818
1798 1 0.480874 0.134384 0.0481848 0.305904 -3.28624 -0.0524173 -0.0232698 0.281322
1805 1 0.537197 0.10535 0.0319252 0.876587 -3.28611 -0.0237955 -0.0300984 0.102722
208 1 0.540537 0.12999 0.0122849 0.879763 -3.27878 0.0605325 0.15056 0.196461
1806 1 0.566609 0.131145 0.036549 0.59567 -3.3056 -0.139168 -0.0938523 -0.0970636
207 1 0.573695 0.108163 0.015952 0.157431 -3.33756 -0.173038 -0.0304992 0.154634
1809 1 0.598938 0.109507 0.040757 0.231008 -3.3334 -0.328136 -0.229997 0.047212
211 1 0.608221 0.110645 0.99954 0.288489 -3.31984 0.0286053 -0.271731 0.0288217
1810 1 0.60216 0.133492 0.0205181 0.375315 -3.34634 0.0350996 0.0912388 0.139575
216 1 0.637242 0.134085 0.00321137 0.125408 -3.33917 0.111757 0.0515491 0.00491509
1813 1 0.634242 0.110359 0.0241189 7.27894 -3.3093 -0.0121882 0.116021 -0.0606155
1897 1 0.663589 0.134941 0.02796 0.254954 -3.31314 -0.302957 -0.134629 -0.104907
220 1 0.667338 0.110636 0.00637944 7.32323 -3.32416 0.191851 0.0581116 0.0734718
224 1 0.728215 0.111538 0.0135129 0.120804 -3.34902 -0.0728461 0.180112 0.0641186
1818 1 0.692904 0.111638 0.0315747 6.95998 -3.29639 -0.00196672 0.0763343 -0.253644
1901 1 0.721612 0.135631 0.0342555 0.256956 -3.36482 0.211932 -0.0478905 -0.10751
299 1 0.696684 0.13478 0.00922014 0.11669 -3.35381 0.166695 -0.0169378 0.0344932
228 1 0.789659 0.111863 0.0206864 0.137402 -3.34322 -0.227021 0.0114068 -0.112413
1822 1 0.753938 0.111874 0.0382834 0.0888999 -3.35433 0.00851801 0.0386855 -0.0103679
303 1 0.759315 0.134799 0.0170538 0.272969 -3.37527 -0.261548 0.101967 -0.178016
1905 1 0.784489 0.136106 0.0419857 0.265876 -3.34047 -0.115965 -0.108306 -0.0613588
232 1 0.849908 0.112581 0.0259796 0.142963 -3.36681 -0.141003 0.0886068 0.17353
307 1 0.817714 0.136214 0.0226086 0.183183 -3.33446 0.184771 -0.136978 0.140249
309 1 0.8529 0.136425 0.00456301 0.134261 -3.36415 0.137591 -0.126296 0.0160852
226 1 0.82348 0.112058 0.00228186 0.0777369 -3.36251 0.0738049 -0.0340051 -0.193778
1826 1 0.813743 0.112686 0.0451562 0.119322 -3.35875 0.191874 0.000344244 -0.0496823
236 1 0.909599 0.113131 0.0330258 0.0487736 -3.33323 -0.155782 0.00889079 0.0270552
230 1 0.884337 0.112901 0.00808487 0.039558 -3.35011 -0.117655 0.00497076 0.105839
311 1 0.879445 0.136791 0.0292153 0.0925576 -3.36564 -0.0862993 -0.106449 0.000716134
313 1 0.914435 0.135913 0.0114589 0.12629 -3.3364 -0.15963 0.161919 -0.191252
319 1 0.998322 0.137498 0.0423889 0.143698 -3.3342 0.101825 0.0768447 0.100597
234 1 0.944804 0.113601 0.0146357 0.0520716 -3.33022 0.0397523 -0.0423512 -0.138936
240 1 0.968895 0.113744 0.0391053 0.159324 -3.35157 0.199296 0.012103 0.247321
315 1 0.93875 0.136165 0.0356225 0.157681 -3.33835 0.102248 0.276598 0.19637
317 1 0.974627 0.137151 0.0177185 0.105249 -3.33896 -0.0470184 0.0244618 -0.170168
321 1 0.0316044 0.18584 0.0235559 0.244713 -3.3499 0.267782 0.0852123 0.209151
318 1 0.00378968 0.161597 0.0202908 0.067844 -3.33653 -0.0920477 0.062827 -0.0411252
30644 1 0.0391369 0.162964 0.00210268 0.122147 -3.32835 -0.113192 -0.100187 0.15423
244 1 0.028072 0.161495 0.044702 0.231378 -3.35911 0.0827517 0.154398 0.224427
242 1 0.0635908 0.163169 0.0270849 0.191758 -3.33998 -0.328694 -0.0730749 0.196917
246 1 0.121681 0.163156 0.0345491 0.243237 -3.34922 0.0554774 0.0626338 -0.0020878
325 1 0.0924831 0.187389 0.0309144 0.192713 -3.29606 -0.149456 -0.054471 0.143899
30723 1 0.0669786 0.187415 0.00655323 0.167039 -3.31606 0.00587548 0.140737 0.146676
30648 1 0.096698 0.163596 0.0101182 0.316057 -3.30668 0.11603 -0.0850181 -0.185316
30727 1 0.124781 0.188488 0.0127932 7.18969 -3.33122 0.0218497 0.302429 -0.111964
256 1 0.180164 0.166904 0.0407125 6.87151 -3.35049 0.0168432 -0.188478 -0.106856
250 1 0.154684 0.167019 0.015205 6.75853 -3.31409 0.0369879 -0.0323595 0.189799
329 1 0.149992 0.188452 0.0371378 6.942 -3.36176 -0.179525 0.158857 0.109387
260 1 0.196541 0.176415 0.012622 0.200304 -3.32938 -0.0729057 0.0382977 0.0500836
259 1 0.226129 0.153048 0.0145957 0.228439 -3.33788 -0.124348 0.291991 -0.0290076
264 1 0.237719 0.185611 0.0104088 6.41512 -3.33723 0.00532844 0.09423 -0.0496375
1858 1 0.221202 0.175806 0.0372914 0.121221 -3.33412 0.0625267 -0.0902757 -0.0656236
1861 1 0.251177 0.15313 0.0387795 0.161226 -3.33375 0.155176 0.0238354 0.0970616
1862 1 0.263795 0.184299 0.0339756 1.8741 -3.3089 0.0797376 -0.0899315 0.0403176
263 1 0.268401 0.163035 0.0113679 1.98872 -3.31951 0.108536 -0.0335112 0.138287
268 1 0.303884 0.190183 0.0250416 5.88025 -3.30057 -0.213438 0.169634 0.168948
1865 1 0.294274 0.161306 0.0358442 0.80426 -3.31507 -0.0909232 0.12476 -0.123158
267 1 0.336235 0.168955 0.0308441 9.34488 -3.34641 -0.113516 -0.0931979 -0.102558
272 1 0.361961 0.19393 0.0320051 5.80991 -3.30662 0.109138 0.00275396 -0.14905
271 1 0.382668 0.165315 0.0275781 5.68975 -3.26467 0.0344432 0.151115 0.0239805
270 1 0.389434 0.192593 0.00725843 0.244314 -3.24068 0.0926244 -0.0636339 0.136871
269 1 0.360015 0.168707 0.00452732 6.62295 -3.26227 -0.118087 -0.110601 -0.0716132
266 1 0.336406 0.1947 0.00599676 1.80554 -3.28234 -0.0750003 -0.213481 -0.191096
273 1 0.413361 0.166748 0.00470043 5.64094 -3.34851 0.0469253 -0.0625796 0.0260449
276 1 0.411402 0.189815 0.0309071 6.01947 -3.27138 -0.105321 -0.24272 -0.025607
275 1 0.441003 0.165149 0.0306323 7.10409 -3.32724 -0.222935 0.349152 -0.172638
280 1 0.441868 0.190946 0.00899833 5.16423 -3.31711 -0.0494651 -0.117566 -0.0350435
279 1 0.45662 0.160833 0.00263517 0.599728 -3.3207 0.0219566 -0.252124 -0.264052
284 1 0.483235 0.183362 0.00830892 6.51466 -3.26511 0.0877319 -0.0948183 0.0787858
1881 1 0.482476 0.158112 0.0291346 1.15757 -3.26256 0.129418 0.36974 -0.106558
1878 1 0.467664 0.189799 0.0360434 6.92025 -3.31206 -0.00969402 -0.307355 0.071598
1882 1 0.51074 0.181568 0.0325436 5.65224 -3.31597 -0.137191 -0.16932 0.112094
1885 1 0.532441 0.154291 0.0297453 7.07591 -3.31561 0.0548167 -0.0114337 0.0914697
1886 1 0.542784 0.180311 0.0131908 1.29272 -3.29691 -0.100069 -0.118681 0.133031
1889 1 0.571277 0.156694 0.0182903 1.46387 -3.34948 0.0665669 -0.102085 -0.00473766
1892 1 0.570472 0.180405 0.0399368 6.02535 -3.27972 0.027988 0.0435315 -0.386655
291 1 0.605436 0.156087 0.998614 0.374164 -3.35669 0.109752 0.352836 0.261053
1890 1 0.601839 0.179683 0.020308 6.11284 -3.28699 0.093741 0.0867478 -0.00446522
296 1 0.636041 0.180515 0.00201074 0.161432 -3.3255 -0.0811114 -0.122162 0.0526188
1893 1 0.631151 0.15753 0.0247629 0.408458 -3.35544 0.0369065 0.0248321 -0.0443299
1894 1 0.659129 0.182322 0.0278461 0.338856 -3.36025 0.214533 -0.19559 -0.0723028
295 1 0.665708 0.158007 0.00617649 0.124591 -3.3511 0.149373 -0.0874181 0.0256234
300 1 0.690569 0.158215 0.0317231 0.32086 -3.31971 0.202764 0.324525 -0.369463
304 1 0.726763 0.158546 0.0122867 0.101204 -3.36756 0.131367 -0.208474 0.251412
379 1 0.720448 0.182144 0.0338246 0.191544 -3.34852 0.238896 -0.271078 -0.177774
377 1 0.695651 0.180818 0.0089808 0.103397 -3.36591 -0.090371 0.127337 0.101131
308 1 0.788123 0.159301 0.0196338 0.102297 -3.34899 -0.0909162 -0.100754 -0.16141
1902 1 0.753019 0.158583 0.0371762 0.149153 -3.36927 -0.19296 0.196746 0.010335
383 1 0.756992 0.181873 0.0153402 0.0785685 -3.34826 -0.145341 -0.0923922 0.12421
1985 1 0.782528 0.182465 0.0404975 0.042861 -3.35801 0.00083807 -0.0521351 0.0465006
1906 1 0.813337 0.159624 0.0439779 0.0385729 -3.35147 0.0422503 0.0400851 0.137589
312 1 0.847739 0.15913 0.0257183 0.123407 -3.34832 0.179295 0.0590164 0.0183597
387 1 0.818142 0.182459 0.02254 0.0982348 -3.33354 -0.0505062 -0.00377585 -0.0442733
389 1 0.852704 0.182837 0.00356539 0.152056 -3.34747 -0.0861297 0.0242142 0.0628855
306 1 0.823349 0.159774 0.00102596 0.183691 -3.35608 -0.14525 -0.170723 -0.0660076
310 1 0.884082 0.159526 0.00767585 0.152885 -3.35325 -0.111166 -0.0619364 -0.160596
316 1 0.909354 0.160017 0.0318542 0.191551 -3.34124 -0.15148 -0.0806252 0.284983
391 1 0.877694 0.182326 0.0275148 0.512333 -3.34466 0.0703464 0.148544 0.40302
393 1 0.913581 0.183615 0.0113209 0.117961 -3.34295 -0.0367522 -0.0592841 -0.201445
399 1 0.998141 0.184953 0.0416917 0.0831574 -3.37439 -0.18323 -0.076074 0.0483857
314 1 0.943196 0.160015 0.0144083 0.0692293 -3.33296 0.0539149 -0.000466577 -0.140096
320 1 0.968809 0.160171 0.0381236 0.216191 -3.36141 -0.0204196 0.176722 0.314787
395 1 0.938488 0.183536 0.0359968 0.162511 -3.34245 0.0655937 0.0304932 -0.110349
397 1 0.97231 0.183699 0.0166091 0.374021 -3.35821 0.156326 0.262171 0.35855
401 1 0.0307847 0.233133 0.025672 7.94781 -3.3186 0.219892 0.0252146 0.00864845
398 1 0.00150875 0.209438 0.0210942 0.106545 -3.32778 -0.109777 -0.243635 0.130654
30724 1 0.0355785 0.210674 0.00401768 5.01439 -3.29539 0.137492 -0.0278782 -0.0256385
322 1 0.0621893 0.21067 0.0288219 5.50868 -3.30772 -0.135923 -0.0950235 -0.173001
326 1 0.118752 0.212916 0.0336051 7.82363 -3.31933 0.349678 -0.122301 0.234334
405 1 0.074015 0.241685 0.024377 11.9037 -3.32451 -0.0629859 -0.133535 -0.050449
409 1 0.105499 0.243491 0.00479438 3.92641 -3.25535 0.0155567 0.0277173 0.221025
30728 1 0.09514 0.212707 0.0105675 11.8628 -3.32161 -0.10527 0.105202 -0.20887
335 1 0.166466 0.199211 0.0102328 7.03851 -3.28057 0.0166798 -0.1781 0.00488033
336 1 0.161885 0.220152 0.0324799 6.41457 -3.27755 -0.229591 0.300115 -0.19812
330 1 0.138585 0.221733 0.00709308 6.55151 -3.28221 -0.236841 0.119091 0.173689
411 1 0.130709 0.243895 0.0288922 1.80915 -3.27981 -0.110494 -0.274403 0.305029
1937 1 0.19144 0.198481 0.0346823 0.131874 -3.29032 0.134257 -0.107286 0.0593761
339 1 0.206715 0.210243 0.00893127 9.0266 -3.27907 0.0885691 -0.399147 -0.21097
340 1 0.201984 0.230609 0.0298442 6.82641 -3.25831 0.110309 -0.0530582 0.0983979
344 1 0.240674 0.23606 0.0198364 3.35928 -3.30502 -0.108099 -0.186764 -0.0757096
1941 1 0.233794 0.206927 0.0322164 6.07599 -3.30193 -0.246039 0.160138 0.0373676
343 1 0.272049 0.212783 0.0221569 5.78198 -3.32552 0.0508818 0.0964419 -0.0977954
348 1 0.298494 0.238446 0.025203 0.30251 -3.30811 -0.0725666 -0.121917 0.0837093
1942 1 0.267196 0.235235 0.045434 6.13456 -3.31038 0.131054 0.046704 0.116618
1945 1 0.297464 0.213433 0.0487987 7.0084 -3.34592 0.267148 -0.171743 -0.078365
347 1 0.328996 0.215084 0.0279554 0.714737 -3.30426 -0.11256 0.221865 0.243452
346 1 0.331844 0.239646 0.0070537 0.146438 -3.31133 0.0333579 -0.0653194 -0.12989
349 1 0.364178 0.217686 0.0104691 1.39511 -3.27424 -0.0228605 0.0465577 -0.141402
352 1 0.357151 0.23925 0.0318539 0.235981 -3.3511 -0.0387681 0.24251 0.174816
351 1 0.39038 0.21797 0.035655 5.47725 -3.32969 -0.0411854 -0.0802783 0.155953
356 1 0.391729 0.241273 0.0132821 0.586044 -3.31463 -0.0705096 0.0418499 -0.00673058
355 1 0.417974 0.216564 0.0126184 6.93962 -3.2414 -0.0151252 -0.0520242 -0.308506
1954 1 0.417989 0.241387 0.0396064 1.93124 -3.31408 -0.0445589 -0.0343086 0.020871
360 1 0.445294 0.239892 0.0170883 6.55876 -3.21679 -0.0323563 -0.101711 0.172322
1957 1 0.438622 0.213386 0.0364436 5.49522 -3.24018 -0.059811 0.0979431 0.0210945
1958 1 0.469266 0.236189 0.0399024 5.61912 -3.26168 -0.0972208 -0.0965551 0.146229
359 1 0.471334 0.213313 0.0166776 7.36088 -3.30958 -0.0188041 0.129009 -0.149952
1961 1 0.497833 0.21163 0.0408242 6.97141 -3.32291 0.0322167 0.0644991 0.106017
364 1 0.502566 0.2356 0.0202621 6.55738 -3.32964 -0.00265014 -0.120518 0.104905
363 1 0.514106 0.204788 0.0123369 7.34249 -3.30573 -0.153383 -0.0271439 -0.229669
1962 1 0.52855 0.232969 0.0466574 5.12183 -3.30341 -0.0150277 0.0569448 0.0234606
368 1 0.543943 0.226764 0.0141986 6.91431 -3.30322 -0.010834 0.213071 -0.22911
1965 1 0.53953 0.204173 0.0363419 7.18323 -3.30222 0.332984 -0.174615 -0.024054
1969 1 0.573394 0.202416 0.0164981 6.44057 -3.2825 -0.0114818 0.423395 0.363369
447 1 0.573781 0.252402 0.0153884 0.820044 -3.32115 -0.212006 -0.0197318 -0.068713
1966 1 0.568895 0.228438 0.0366854 5.90356 -3.25422 -0.0222593 -0.177798 0.273587
371 1 0.608374 0.204272 0.99893 0.528375 -3.31589 -0.226652 -0.132821 -0.0963809
1970 1 0.60148 0.228335 0.0196909 6.74421 -3.29978 0.286502 -0.100593 -0.0278189
376 1 0.636289 0.228249 0.00063983 0.296466 -3.33181 0.128334 0.00838277 0.1034
1973 1 0.630932 0.205909 0.0235496 6.42993 -3.28862 -0.30413 -0.185602 0.159646
455 1 0.660704 0.228458 0.0262353 0.135449 -3.32487 0.210391 0.0300368 -0.108818
2053 1 0.62735 0.229812 0.0444456 6.87226 -3.27084 -0.243004 0.0101453 -0.14913
375 1 0.664431 0.204267 0.00521129 0.346672 -3.35409 0.217827 -0.0195754 -0.0423452
380 1 0.690827 0.204774 0.0298607 0.093161 -3.34 -0.234564 0.0703559 -0.141599
378 1 0.725811 0.205054 0.0115518 0.0993304 -3.34855 0.163786 -0.0852355 0.0482774
459 1 0.720859 0.22868 0.0318967 0.0868194 -3.34867 0.122272 0.0367378 0.021308
457 1 0.69514 0.226768 0.00794036 6.58542 -3.29448 0.0600976 0.248165 0.112371
384 1 0.75097 0.204322 0.036858 0.39486 -3.35299 0.176122 0.280403 -0.187546
388 1 0.786281 0.204823 0.0186424 0.166958 -3.33812 -0.0204273 0.243457 0.0513898
463 1 0.781293 0.228942 0.0391271 0.131305 -3.3616 0.028608 0.0832641 -0.251459
461 1 0.756278 0.22831 0.0144604 0.255395 -3.34783 -0.239225 0.0135034 0.164215
392 1 0.84757 0.206017 0.025267 0.0953347 -3.34065 -0.0222516 0.0766562 -0.116954
467 1 0.816468 0.229385 0.0208863 0.0861942 -3.35046 -0.137186 0.0425542 0.252936
1986 1 0.812502 0.206138 0.0426049 0.0507748 -3.36202 0.0672045 0.0205824 0.105781
469 1 0.8505 0.228973 0.00352975 0.175202 -3.35953 0.224227 0.236423 0.029708
2069 1 0.842932 0.230446 0.0455828 0.0999198 -3.33957 -0.200283 -0.037408 0.00996813
390 1 0.882949 0.206596 0.00780041 0.188544 -3.33673 -0.199067 0.0718992 -0.0842362
396 1 0.908565 0.206651 0.0322425 0.213151 -3.35177 -0.261316 0.134481 0.082725
471 1 0.877025 0.230009 0.0282437 0.0504259 -3.3557 0.0204521 0.111929 -0.0536414
473 1 0.911186 0.230896 0.0107316 0.0762735 -3.34688 -0.0251409 -0.0186682 0.002803
394 1 0.942166 0.208179 0.0147068 0.16461 -3.3348 0.0292012 -0.234551 -0.0358315
400 1 0.966948 0.207882 0.0389447 0.0617305 -3.34541 0.0300914 -0.0410323 -0.0567276
475 1 0.936489 0.231869 0.0357517 0.0889102 -3.34306 -0.0132949 -0.119876 -0.014076
479 1 0.995859 0.231673 0.0431542 0.108061 -3.33387 0.0311749 0.0838522 -0.0643581
477 1 0.970845 0.231579 0.0181446 0.0714345 -3.31904 -0.000784172 0.0788795 0.0229568
402 1 0.0421407 0.265804 0.0223498 10.4984 -3.3294 -0.0856544 -0.17282 -0.136249
481 1 0.0115731 0.28911 0.0175604 11.6058 -3.32273 -0.0746862 0.123787 0.062784
478 1 6.65703e-05 0.255615 0.0219522 7.11896 -3.31267 0.0878162 0.0928489 0.165786
412 1 0.100404 0.266249 0.0272439 4.11699 -3.24899 -0.0523482 -0.109846 -0.108507
406 1 0.0752411 0.26582 0.00341576 7.56805 -3.30569 0.0375237 -0.0410931 -0.154633
487 1 0.0707995 0.289249 0.0244091 4.66062 -3.27507 -0.0419342 0.0699149 -0.237817
491 1 0.111984 0.297321 0.0228365 3.76684 -3.27474 -0.0080545 0.146726 -0.260673
410 1 0.117193 0.276259 0.000983094 7.19919 -3.33442 0.159568 -0.153714 -0.115192
415 1 0.172035 0.251676 0.0266875 7.11489 -3.2883 -0.0565774 0.205941 0.15828
416 1 0.141021 0.275863 0.0255497 6.43568 -3.26998 0.466486 -0.225298 -0.0789589
413 1 0.147448 0.253916 0.00381599 9.94993 -3.27746 0.0837356 0.0114924 -0.225754
420 1 0.178564 0.279718 0.012354 2.10508 -3.28772 0.0701219 -0.0201901 -0.0547557
419 1 0.209534 0.257943 0.0152529 5.74734 -3.26618 0.0475099 0.0606206 -0.0114939
2021 1 0.237497 0.25779 0.0450374 6.31212 -3.31488 -0.168924 0.114445 -0.0339232
424 1 0.2356 0.283619 0.0177858 0.773396 -3.30492 0.0753578 -0.00323104 -0.149712
2018 1 0.206321 0.28032 0.0377364 8.58225 -3.29965 0.0130265 -0.0301639 0.277753
2022 1 0.25778 0.284986 0.0430317 6.74293 -3.31504 0.0059861 0.0973388 0.0380449
423 1 0.267081 0.259887 0.0228951 0.542643 -3.31386 -0.101875 0.28175 -0.18479