ITEM: TIMESTEP
9250
ITEM: NUMBER OF ATOMS
32000
ITEM: BOX BOUNDS pp pp pp
3.7428758412713901e+00 7.7257124158723457e+01
-1.4769724960997976e+00 8.2476972496093921e+01
-1.4770175159178081e+00 8.2477017515913900e+01
ITEM: ATOMS id type xs ys zs c_csym c_peratom fx fy fz
8 1 0.050043 0.0251715 0.0248082 0.011658 -3.33904 0.00524826 -0.0631476 0.0137799
1605 1 0.0499788 0.00015568 0.0496725 0.0185797 -3.33108 -0.0356419 -0.0413098 0.0702461
12 1 0.0998649 0.0250245 0.0249784 0.0123626 -3.32806 0.0772337 0.0464291 0.0578634
7 1 0.0750113 -0.000428845 0.0249306 0.0261427 -3.32708 -0.013052 0.121805 -0.0342488
9 1 0.10008 0.000130631 0.000176251 0.0217554 -3.32288 -0.00371419 -0.0761215 -0.0347464
87 1 0.0754365 0.0504786 0.0249616 0.0559976 -3.32593 -0.150415 -0.0698919 0.07813
6 1 0.0751427 0.0248316 0.000226688 0.022967 -3.31958 -0.0580401 0.0465084 -0.0444201
16 1 0.150026 0.0251727 0.0253466 0.024778 -3.33257 -0.0528037 -0.0244951 -0.0481173
15 1 0.174795 -6.90166e-05 0.024834 0.0155117 -3.34285 0.0849302 0.00498074 0.0096339
1693 1 0.149974 0.0501633 0.0502372 0.0205412 -3.32314 0.0785495 -0.0455637 -0.141324
91 1 0.125188 0.0505018 0.0252626 0.0293006 -3.33509 -0.166522 -0.119507 -0.00502867
95 1 0.175157 0.0500445 0.0248776 0.0144635 -3.32043 -0.109215 0.0445594 0.0337107
14 1 0.174564 0.0250489 -8.51362e-05 0.0152859 -3.32461 0.0544384 -0.0330475 0.0515529
93 1 0.150019 0.0504131 0.000367111 0.0260941 -3.31693 0.0420041 -0.0248491 -0.0683138
20 1 0.20003 0.0249683 0.0245901 0.0172679 -3.32508 -0.00532858 -0.0258476 0.0120348
19 1 0.22493 8.7915e-05 0.0244299 0.0395319 -3.3381 0.00715474 -0.0591293 0.072882
1618 1 0.224857 0.0250068 0.0497595 0.0159405 -3.323 0.0147614 0.0671288 0.0145139
18 1 0.224977 0.0251057 2.07796e-05 0.022179 -3.32484 -0.0463778 -0.0187294 -0.0925137
97 1 0.199587 0.0500128 -6.68303e-05 0.022052 -3.32408 0.103446 0.0118801 0.0230838
24 1 0.2496 0.0252187 0.0248763 0.0198335 -3.33221 0.152536 -0.0414721 -0.00776364
1622 1 0.274826 0.0249719 0.0498589 0.01214 -3.32778 -0.0561388 0.0251217 0.0222752
103 1 0.274857 0.0501419 0.0249167 0.00930073 -3.3333 -0.00218172 -0.0360661 -0.0477563
22 1 0.275051 0.0250638 -0.00030047 0.0130758 -3.33717 -0.0167031 0.0327634 0.0735653
28 1 0.299504 0.0248235 0.024949 0.0472782 -3.32725 0.118616 0.032691 0.0288711
26 1 0.325156 0.0248761 0.000621661 0.0652284 -3.33158 -0.0283292 0.0207078 -0.13598
32 1 0.350199 0.025013 0.0253072 0.0144058 -3.32595 -0.00179665 -0.071495 -0.00675223
27 1 0.324996 -3.28459e-05 0.0253474 0.0204531 -3.33846 0.046637 0.0588018 -0.0194201
1626 1 0.325092 0.0249863 0.0504982 0.0393161 -3.33572 -0.107957 0.00246583 -0.162167
1705 1 0.300043 0.0500151 0.0496941 0.019076 -3.3358 0.0503945 0.00589766 0.0336833
31 1 0.375066 -0.000231573 0.0250715 0.0118928 -3.31949 -0.0842234 0.0555786 -0.0197276
30 1 0.374963 0.0246513 0.000132648 0.0233815 -3.33099 0.0313522 0.0884253 -0.00448967
36 1 0.399961 0.0248322 0.0249094 0.0122376 -3.32303 -0.0321335 0.0722409 0.0266589
111 1 0.37497 0.0499655 0.0249521 0.0104168 -3.33278 0.0687741 0.0105107 0.0343173
113 1 0.400155 0.0501482 -0.000121681 0.0275475 -3.33122 -0.0511309 -0.082519 0.0502393
1630 1 0.375206 0.0250246 0.049989 0.0137051 -3.32837 -0.0406508 0.050422 0.0312714
115 1 0.425128 0.0499158 0.0249798 0.00634356 -3.33975 0.0416996 0.0327743 -0.00730105
35 1 0.425149 0.000184735 0.0249725 0.016089 -3.33511 0.033255 -0.0835423 0.0382629
34 1 0.425066 0.0251129 0.000242536 0.0299468 -3.3239 0.0246403 -0.0551752 -0.0309744
40 1 0.450576 0.0248854 0.0251103 0.0364661 -3.32323 -0.111894 0.0526255 -0.0104335
1634 1 0.424864 0.0250683 0.0498821 0.0224131 -3.33175 -0.0124556 -0.0355165 0.0345636
1717 1 0.450114 0.0497878 0.0501166 0.0120322 -3.32292 0.00455522 0.0298385 -0.0455793
44 1 0.500271 0.0249869 0.025365 0.0310121 -3.32334 -0.0915493 -0.0388165 -0.0249062
123 1 0.524974 0.0499377 0.0250727 0.0153622 -3.33493 0.0810847 -0.0101527 -0.00690213
1721 1 0.50013 0.049772 0.0501056 0.00824979 -3.3247 -0.0135646 0.0714609 0.00307905
48 1 0.550313 0.0246659 0.0253433 0.0310418 -3.34212 -0.0570095 0.0327107 -0.135319
127 1 0.575546 0.0498163 0.0249735 0.0150865 -3.32795 -0.110967 0.0134997 0.0167043
1645 1 0.55028 -9.80354e-05 0.0498152 0.0243071 -3.33415 -0.0304213 -0.0747202 0.0272924
47 1 0.575194 -0.000234019 0.0247288 0.0224594 -3.3324 -0.0107635 0.00904128 0.0420885
1646 1 0.575518 0.0247599 0.049988 0.0217099 -3.31915 -0.0240701 0.0141402 -0.0283726
52 1 0.600385 0.0253252 0.0248463 0.0596797 -3.31939 -0.0575076 -0.15751 0.04396
129 1 0.600519 0.0497233 -0.000147606 0.0288171 -3.32683 -0.0929529 0.0119478 0.0859103
131 1 0.625699 0.0497172 0.0252196 0.0359553 -3.32769 -0.0802456 0.0600314 -0.030281
1650 1 0.625136 0.0248011 0.0498491 0.0145298 -3.34254 -0.0282389 -0.0179389 0.0371953
56 1 0.650813 0.0247882 0.0247327 0.0598748 -3.3212 -0.169472 0.0284468 0.157166
60 1 0.70028 0.0248401 0.0249097 0.0132953 -3.32887 -0.00842953 0.0230746 0.0198575
1657 1 0.700079 -0.000231265 0.0497494 0.0390331 -3.332 0.0231327 0.0222755 0.0659839
1654 1 0.675409 0.0250114 0.050344 0.0288371 -3.32466 -0.0527773 -0.0698808 -0.107186
53 1 0.650512 -0.000297941 3.56502e-05 0.0326246 -3.31587 -0.142093 0.0206021 0.00879716
64 1 0.750462 0.0249244 0.0252488 0.0240939 -3.32378 -0.134824 0.0195348 0.0346896
59 1 0.725397 -0.000204976 0.024799 0.0279015 -3.34277 0.0100312 0.00772682 0.0937412
1658 1 0.725012 0.0246303 0.0500169 0.0307333 -3.33082 0.0342453 0.0203937 0.0320483
1661 1 0.750282 -6.70057e-05 0.0505667 0.0375195 -3.32552 -0.0989512 0.00184659 -0.149734
62 1 0.77476 0.024881 0.000632401 0.0634169 -3.31267 0.132587 0.086403 -0.130386
68 1 0.799924 0.0253373 0.025315 0.0301027 -3.33613 -0.012627 -0.0800807 -0.0611162
67 1 0.824862 0.000125252 0.0250101 0.0132936 -3.33045 -0.062575 -0.000110244 -0.0179835
72 1 0.850158 0.0248251 0.0248505 0.0220918 -3.32584 -0.0636343 0.0480209 0.0954176
147 1 0.825204 0.0498992 0.0248929 0.025866 -3.32489 -0.044144 0.0216194 0.129631
71 1 0.875129 0.000214082 0.0255211 0.0598279 -3.32604 0.0306326 -0.107849 -0.121394
1669 1 0.849853 -0.000115493 0.0498292 0.0232694 -3.32168 0.0558344 0.0162372 0.0841115
66 1 0.825025 0.0248176 -0.000237238 0.0389975 -3.32357 -0.0591619 0.0204479 0.123588
149 1 0.849833 0.0499884 0.000259378 0.0147996 -3.32322 0.0414206 0.0302435 -0.0917487
76 1 0.899964 0.0250824 0.0251271 0.0108653 -3.32831 0.00926946 -0.0398831 -0.101723
74 1 0.925207 0.0248954 -0.000148342 0.0175804 -3.32079 -0.131926 -0.00771556 0.0362127
155 1 0.924901 0.0500289 0.0247534 0.0231718 -3.32046 -0.0203231 0.00535555 0.0600097
4 1 0.999955 0.0251301 0.0251967 0.0125813 -3.32665 0.0376238 0.0173268 -0.0888595
80 1 0.949586 0.0251296 0.0250961 0.0315977 -3.32206 0.122601 -0.0436875 -0.0521404
1678 1 0.975203 0.0250823 0.0498953 0.0148004 -3.3219 -0.0316066 0.0328981 0.033439
78 1 0.974874 0.0250549 1.00702e-05 0.00490873 -3.33806 0.0244039 0.00239596 0.0205152
159 1 0.974755 0.0500293 0.02505 0.00885287 -3.3396 0.055802 0.0764112 -0.062888
1 1 0.999926 -1.90083e-05 0.000111802 0.0164899 -3.30766 -0.0599527 0.0700895 -0.0206216
81 1 1.0001 0.050305 7.68412e-05 0.0189276 -3.34001 -0.0540827 0.0283737 0.0734924
83 1 0.0252454 0.0502939 0.0252301 0.0195026 -3.3239 -0.0944409 0.00286886 -0.119899
88 1 0.0501015 0.0752334 0.0248468 0.0153686 -3.32415 0.0296581 0.0277462 0.110851
82 1 0.025356 0.0754995 0.000281658 0.0371461 -3.32239 -0.125765 -0.145032 -0.0495561
163 1 0.0248676 0.100486 0.0250741 0.0116523 -3.32479 0.0351548 -0.0387396 0.00123334
1765 1 0.0501497 0.100359 0.0499899 0.00458595 -3.3324 -0.0281697 -0.0124375 -0.0135755
165 1 0.0499749 0.100248 7.92342e-06 0.0121088 -3.31618 -0.00804405 0.0733427 0.0638943
92 1 0.0999793 0.075693 0.0252863 0.0373191 -3.32497 0.0420599 -0.109951 -0.0818738
86 1 0.0750387 0.0756038 0.000130816 0.0281243 -3.32577 0.021421 -0.114362 -0.0123561
167 1 0.0750328 0.100427 0.0248643 0.0136707 -3.32819 -0.0114145 -0.00213771 0.0673117
96 1 0.149899 0.0750171 0.025218 0.0177372 -3.32493 0.0627538 0.0648151 -0.0777683
1773 1 0.149961 0.0999413 0.0502408 0.0170794 -3.32459 0.0631371 0.0785932 -0.0441985
173 1 0.150108 0.100097 0.000150344 0.00772034 -3.33547 -0.0593943 0.00878298 -0.0246367
94 1 0.175135 0.0753875 2.49673e-05 0.0183521 -3.3305 -0.0403597 -0.0397651 0.0111005
100 1 0.200075 0.0753379 0.0249199 0.0141626 -3.31928 -0.00901144 -0.0544736 -0.0255081
99 1 0.225141 0.0502424 0.0246686 0.0169195 -3.32419 -0.0507682 -0.0213174 0.00790764
98 1 0.224848 0.0749954 -0.000147073 0.0105263 -3.33296 0.0184087 0.0372253 -0.00274137
104 1 0.249928 0.0753613 0.0248428 0.0158985 -3.31568 0.0605703 -0.0404019 -0.0121793
101 1 0.250008 0.0502013 -0.000274122 0.0161476 -3.33256 -0.00221534 -0.0399257 0.000447798
102 1 0.274737 0.075089 -1.34771e-05 0.0198444 -3.32179 0.0935356 0.00107409 -0.0651643
107 1 0.324917 0.0495756 0.0249527 0.0524383 -3.32859 0.00721795 0.114739 0.0584734
108 1 0.299757 0.0751744 0.0245819 0.0391129 -3.33036 0.125434 -0.0406349 0.132505
187 1 0.325372 0.10015 0.0250201 0.0248148 -3.32483 -0.065192 -0.0672373 0.0170047
106 1 0.324634 0.0753586 0.000191833 0.0515942 -3.32838 0.169763 -0.0577601 -0.0276096
112 1 0.349796 0.0747693 0.0252753 0.0412966 -3.33673 0.094001 0.0366999 -0.0922816
1785 1 0.300286 0.0999669 0.0498298 0.0100976 -3.32009 -0.0431836 0.0141446 -0.0132778
185 1 0.299997 0.100361 2.33893e-05 0.0220356 -3.32305 -0.066269 -0.0810765 -0.0270756
109 1 0.350157 0.0500294 0.000127683 0.0185858 -3.32139 -0.0939373 0.00950899 0.0576743
189 1 0.350313 0.100088 0.000225058 0.019625 -3.32085 0.000569882 -0.103004 -0.0506764
191 1 0.375307 0.0996575 0.0249249 0.0313935 -3.32936 -0.0740527 0.0900604 0.0994181
110 1 0.37511 0.0749394 7.4633e-05 0.0109321 -3.33338 -0.0209002 0.0120754 -0.027377
116 1 0.399975 0.0750606 0.0250264 0.0125836 -3.3212 0.0520574 -0.0946424 0.015193
193 1 0.40012 0.099975 0.000274839 0.0220411 -3.31457 -0.0364893 -0.0117952 -0.132811
120 1 0.450331 0.0753467 0.0248276 0.0521141 -3.32981 -0.0564482 -0.106911 0.0567438
195 1 0.424853 0.100089 0.0252103 0.0405456 -3.32603 0.169302 -0.00474562 -0.0718892
119 1 0.475061 0.050104 0.0252847 0.022361 -3.32705 0.0312079 -0.0470296 -0.0373298
1718 1 0.474911 0.0749919 0.050203 0.0183618 -3.34111 0.0613808 0.00962985 -0.0300729
124 1 0.499983 0.0750111 0.0248068 0.0277188 -3.33114 0.0531279 0.00490304 0.119664
199 1 0.475132 0.100136 0.0248591 0.0181251 -3.31788 0.0164967 -0.051075 0.0625919
128 1 0.550472 0.0746812 0.02523 0.0211414 -3.32494 -0.0366926 -0.0190907 -0.00960123
207 1 0.575163 0.100045 0.0254276 0.0262534 -3.32661 0.0635704 -0.0936863 -0.0824923
1726 1 0.57544 0.0749734 0.0505066 0.0432503 -3.33108 -0.0196862 -0.0150835 -0.109669
132 1 0.600226 0.0749353 0.024891 0.0203433 -3.33358 -0.0168844 -0.00371634 0.0793779
211 1 0.625404 0.0999639 0.024873 0.0206678 -3.33578 0.00997696 0.0241007 0.0966512
1729 1 0.600142 0.0499329 0.0500245 0.011629 -3.32506 0.038202 -0.0167627 -0.0212627
1730 1 0.625182 0.0750071 0.0500234 0.0146885 -3.33112 0.0316711 -0.0183607 -0.0240766
1809 1 0.600538 0.100066 0.0501513 0.0221204 -3.33629 -0.0296351 -0.0273802 0.0212505
135 1 0.67532 0.0498953 0.0253077 0.0158979 -3.32321 0.0190831 -0.0160705 0.0119434
1737 1 0.700214 0.0496762 0.0503999 0.0224655 -3.32421 -0.0142454 0.0931637 -0.0170164
136 1 0.650315 0.0749019 0.0251217 0.00797094 -3.32708 -0.0292486 0.0276617 0.0254514
140 1 0.70037 0.0745653 0.0251295 0.0270514 -3.32263 -0.0466909 0.119286 0.00238116
1734 1 0.675343 0.0752342 0.0500072 0.0431319 -3.33693 -0.0582632 -0.131298 0.0740119
139 1 0.72508 0.04988 0.0254692 0.0289543 -3.32017 -0.0044358 -0.0822248 -0.126507
144 1 0.749729 0.0748272 0.0252969 0.0270524 -3.32247 0.0400922 0.0874985 -0.0403764
138 1 0.725082 0.0748733 9.61343e-05 0.00497045 -3.32022 0.00248464 -0.0525328 -0.00600181
1821 1 0.74982 0.100075 0.0504691 0.0318448 -3.33834 0.038914 -0.0183315 -0.125935
143 1 0.775117 0.0504377 0.0252053 0.0484372 -3.31659 -0.0214255 -0.128569 -0.0407699
148 1 0.80016 0.0749001 0.0252845 0.0177541 -3.32191 0.0568098 0.0772777 -0.0264993
142 1 0.775036 0.0748394 0.000179421 0.0126514 -3.33579 0.0195382 0.0360238 -0.038308
151 1 0.874811 0.0496857 0.0251622 0.0180833 -3.32562 0.00270099 0.0738848 -0.0212694
227 1 0.825139 0.100374 0.0253074 0.0201638 -3.32509 -0.0414335 -0.0484877 -0.083951
152 1 0.849957 0.0752438 0.0251791 0.0177542 -3.32393 -0.00481655 -0.0955277 0.0160881
231 1 0.874794 0.0998092 0.0251095 0.00940941 -3.32263 0.0359473 0.0413196 -0.0487237
150 1 0.875126 0.074821 0.000321576 0.0167464 -3.3334 -0.0691656 -0.00615936 -0.0666065
1829 1 0.849931 0.100084 0.0500665 0.00453669 -3.32385 0.00809278 0.00349163 0.043517
146 1 0.825061 0.075153 0.000343466 0.0209803 -3.32437 -0.0481786 -0.0511055 -0.0839353
156 1 0.899696 0.0747929 0.0255842 0.0679649 -3.33005 0.0510541 0.0112109 -0.11292
154 1 0.925023 0.0746207 6.58913e-05 0.018829 -3.32369 -0.0462587 0.0532013 -0.0297942
235 1 0.924963 0.099758 0.0247041 0.023871 -3.3256 -0.0522825 0.0641588 0.126936
84 1 1.00006 0.0755293 0.0252329 0.0224587 -3.34142 -0.0630998 -0.117751 -0.0710704
160 1 0.949786 0.0751373 0.0249421 0.0187452 -3.32087 0.127104 -0.0866718 0.0110444
1837 1 0.950314 0.0998783 0.0497819 0.0327369 -3.3296 -0.0844997 0.109292 0.0716442
157 1 0.94984 0.0497594 -9.68402e-05 0.0139991 -3.31257 0.0452843 0.0700057 0.0182203
237 1 0.949797 0.0996269 -3.94375e-05 0.0319759 -3.31819 0.043942 0.131757 -0.00865323
239 1 0.974811 0.100285 0.0251771 0.015676 -3.3252 0.0773021 -0.0468336 -0.0908495
1758 1 0.974914 0.0749954 0.0502485 0.0249737 -3.33351 0.0370914 -0.00117716 -0.0792967
161 1 1.00001 0.100111 0.000200366 0.0177138 -3.33304 -0.0591744 0.0432298 -0.0204525
168 1 0.0498035 0.125127 0.0253311 0.0350686 -3.32193 0.0820777 0.0485464 -0.12455
164 1 -0.000388217 0.125649 0.0252852 0.0420718 -3.31807 0.0976874 -0.101813 -0.0897258
243 1 0.024703 0.15016 0.0249699 0.0149757 -3.34111 0.0912106 0.0840457 0.0164297
245 1 0.0497381 0.149796 0.000136437 0.0341044 -3.32181 0.0757526 0.0972138 -0.00183351
172 1 0.100188 0.125452 0.0249726 0.0152172 -3.32073 -0.00836683 -0.0779531 0.0513277
247 1 0.075025 0.149996 0.0247357 0.0305659 -3.33548 0.0340543 0.118331 0.0183907
1849 1 0.100353 0.15013 0.0498285 0.0285926 -3.32687 -0.0433951 0.0715211 -0.0025166
1766 1 0.0752572 0.125541 0.0499309 0.0229181 -3.3257 -0.0339687 -0.129725 0.00318827
249 1 0.100473 0.150257 -0.000253689 0.0376592 -3.32098 -0.112175 -0.0286727 0.0722439
175 1 0.175092 0.0998804 0.0252367 0.0209996 -3.32328 -0.0363557 0.0625602 -0.0354904
171 1 0.125173 0.100261 0.0249879 0.00508749 -3.32448 -0.00192168 0.00604694 -0.0288189
176 1 0.150329 0.124838 0.024965 0.0309357 -3.32512 -0.0261985 0.0344689 0.0370543
170 1 0.124754 0.125204 7.2061e-05 0.0249597 -3.31936 0.113188 -0.0147092 -0.0449928
251 1 0.125363 0.149809 0.0253 0.0417038 -3.32325 0.0110569 0.0955683 -0.083023
255 1 0.174781 0.150015 0.0253222 0.0183969 -3.33658 0.0736273 0.00174111 -0.0629004
180 1 0.199965 0.124975 0.0249858 0.0161102 -3.32877 -0.0174128 0.0918526 0.0583439
179 1 0.225032 0.100168 0.0251646 0.0134371 -3.32469 -0.0215851 -0.00464026 -0.0702568
259 1 0.225039 0.15028 0.0247683 0.0183225 -3.3396 -0.000757698 -0.0445958 0.0758856
257 1 0.200067 0.150309 -0.000127678 0.0181948 -3.33006 -0.0706096 -0.0852381 0.0360219
183 1 0.275223 0.100159 0.0250416 0.0124289 -3.32679 -0.0418286 0.00163567 -0.0118762
184 1 0.250182 0.12475 0.0252619 0.0470324 -3.31983 -0.0423039 0.111642 -0.0842185
182 1 0.274581 0.125057 2.43797e-05 0.0372912 -3.32128 0.104608 0.00977414 0.04877
261 1 0.249844 0.150143 -9.34491e-05 0.00953227 -3.32422 -0.0196099 0.000216514 0.02153
181 1 0.250121 0.099956 -0.000119361 0.0188806 -3.32993 -0.101151 0.0413935 0.0356068
188 1 0.300429 0.125058 0.0247642 0.0443501 -3.32337 -0.182286 0.00875893 0.065036
186 1 0.325109 0.124494 0.000338237 0.0616227 -3.31695 0.0440158 0.197416 -0.137079
192 1 0.350461 0.124966 0.0248939 0.0250422 -3.32416 -0.0699031 -0.0204936 0.0753083
267 1 0.325241 0.150063 0.0252168 0.0294519 -3.32159 -0.0662432 -0.0402831 -0.0498573
1786 1 0.324673 0.12509 0.0499255 0.0420475 -3.33025 0.162428 0.00102097 0.0480431
196 1 0.400212 0.125047 0.0250272 0.016483 -3.32732 -0.0281522 -0.0329931 0.0275348
200 1 0.450581 0.124958 0.025025 0.0266521 -3.33245 -0.0905677 -0.0343987 0.0124023
1797 1 0.450039 0.0999922 0.0502393 0.0273017 -3.33603 0.0632397 0.0278843 -0.0776582
203 1 0.525923 0.0998239 0.025167 0.0616087 -3.32468 -0.180961 -0.0203432 -0.0440164
204 1 0.500174 0.124981 0.0247859 0.0253689 -3.32472 0.050066 -0.0266858 0.0956865
202 1 0.525259 0.125014 0.000144466 0.00992145 -3.32621 0.00615547 0.00806419 -0.0224719
201 1 0.500671 0.0998529 0.000225664 0.0336951 -3.32732 -0.0600546 -0.00106982 -0.0446084
279 1 0.475509 0.150265 0.0250504 0.0313569 -3.31945 -0.0373334 -0.0788341 -0.0163512
283 1 0.525183 0.149728 0.0251364 0.024389 -3.34642 -0.0370629 0.100267 -0.0613974
208 1 0.550394 0.124814 0.0250824 0.00742289 -3.3106 -0.029231 0.0557473 -0.00436623
1885 1 0.55028 0.14966 0.0497501 0.0285328 -3.31632 -0.0806637 0.0874722 0.053813
1806 1 0.575226 0.124996 0.0502204 0.0127245 -3.31364 0.00946346 -0.10169 -0.0313668
285 1 0.550058 0.150093 6.98595e-05 0.0136277 -3.32479 0.0496765 -0.0942945 -0.0292038
212 1 0.600191 0.124751 0.0253059 0.0160165 -3.32862 0.0195236 0.0573749 -0.0410808
215 1 0.67532 0.0999865 0.0251023 0.0117854 -3.3324 -0.0613007 -0.0510223 -0.00296017
216 1 0.650746 0.125249 0.0252522 0.0473647 -3.32948 -0.112853 -0.0923598 -0.00665717
220 1 0.700199 0.124998 0.0249913 0.0152008 -3.31496 -0.0664877 -5.05851e-05 0.0204418
295 1 0.675479 0.150105 0.0250746 0.0294717 -3.32083 -0.0662213 0.022426 0.0192428
219 1 0.724942 0.100168 0.025056 0.026588 -3.3304 0.0392764 -0.0961295 0.0316062
224 1 0.749998 0.12499 0.0247529 0.0215088 -3.33145 -0.044875 -0.041064 0.117814
299 1 0.724947 0.149982 0.0246819 0.0325926 -3.33875 0.0109945 0.0352549 0.0745895
223 1 0.77511 0.0998696 0.0249752 0.0110867 -3.33692 -0.0700789 0.0359474 0.0547472
222 1 0.775006 0.125047 0.000246038 0.0230457 -3.32254 0.0259163 -0.130518 -0.155825
228 1 0.799893 0.125217 0.0247928 0.0208725 -3.32292 0.0307472 -0.0506098 0.0674396
225 1 0.800295 0.099936 0.000245788 0.0247526 -3.34192 -0.0272892 0.046612 -0.0975598
1825 1 0.800264 0.100484 0.0500739 0.0208166 -3.33439 -0.0917781 -0.107178 0.0359107
307 1 0.824606 0.150283 0.0250145 0.0316874 -3.32513 0.19973 -0.0565053 -0.0341787
232 1 0.850143 0.125119 0.0252864 0.0197667 -3.33263 -0.0540327 0.026256 -0.127837
311 1 0.875145 0.14988 0.0248114 0.020439 -3.31187 -0.00878594 0.0591328 0.0920216
1830 1 0.874982 0.124816 0.0500333 0.00910351 -3.32708 0.0652128 0.0499905 0.0564884
236 1 0.899686 0.124711 0.0250108 0.0230122 -3.3309 0.131502 0.0111492 0.00418806
1913 1 0.900202 0.150015 0.0497564 0.0131647 -3.32726 -0.0527351 -0.0502905 0.0556577
315 1 0.925023 0.150161 0.0249313 0.0154086 -3.32096 0.0295737 -0.1454 -0.0112738
1834 1 0.924842 0.124741 0.0500958 0.0221062 -3.33413 0.0421953 0.0244892 -0.110149
313 1 0.90025 0.149887 0.000391899 0.0402793 -3.32237 0.000359271 0.0515139 -0.125001
240 1 0.949831 0.124941 0.0249112 0.0150226 -3.34021 0.016025 0.0704933 0.0361572
238 1 0.975047 0.125181 0.000304155 0.0353932 -3.33361 -0.0995388 -0.0777696 -0.0867218
1917 1 0.950031 0.149861 0.0498242 0.028545 -3.32368 -0.0726598 0.0354089 0.0259409
319 1 0.974872 0.150692 0.0251542 0.0453987 -3.31944 -0.0101183 -0.0963793 -0.0451171
317 1 0.950067 0.150183 -0.000213242 0.0184163 -3.34046 -0.0766143 -0.0748045 0.0305602
1838 1 0.975384 0.1255 0.0499618 0.0441413 -3.32102 -0.136089 -0.077744 0.0379192
248 1 0.0501541 0.17539 0.0246691 0.0339841 -3.3368 -0.0310805 -0.120049 0.0486178
323 1 0.025265 0.200351 0.0252225 0.0397116 -3.31713 -0.0689207 -0.0410624 -0.122077
242 1 0.0250124 0.174868 -0.00019137 0.0359002 -3.32245 0.0144512 0.0473177 0.0802084
252 1 0.100541 0.175184 0.0252516 0.0520495 -3.33986 -0.115301 -0.0596961 -0.0995043
327 1 0.0751453 0.200092 0.0247399 0.0121122 -3.3318 -0.000844782 0.0147056 0.0711671
1846 1 0.0750845 0.175043 0.0498383 0.0147849 -3.32155 0.0316713 0.0812713 -0.0651584
246 1 0.0751882 0.17482 -0.000317332 0.0357236 -3.34208 0.0142503 0.0632883 0.0727542
256 1 0.149899 0.175129 0.0249876 0.010855 -3.33787 -0.0236382 0.0204305 0.00376375
331 1 0.124816 0.20034 0.0248976 0.0218469 -3.32599 0.0648112 -0.0428671 0.0204511
335 1 0.175111 0.200133 0.0250317 0.0104014 -3.32705 -0.0742405 -0.0297874 0.00244772
1850 1 0.125458 0.175567 0.0501229 0.0610499 -3.31941 -0.0787384 -0.127396 0.00477407
333 1 0.149918 0.200049 2.34375e-05 0.0108424 -3.32431 0.0242504 -0.0290785 0.0716993
1857 1 0.200193 0.150216 0.0502249 0.0140981 -3.32793 0.0177532 -0.0249769 -0.0977499
260 1 0.199882 0.175065 0.0249793 0.00563655 -3.32832 -0.000542611 -0.0249527 0.0600835
1858 1 0.225074 0.175197 0.0501598 0.0121913 -3.32154 -0.0591498 -0.0471643 -0.0856397
1937 1 0.199894 0.199738 0.0499857 0.0249896 -3.3299 0.00187372 0.108508 0.0361125
339 1 0.224674 0.200195 0.0247815 0.0203371 -3.32247 0.0591487 -0.0699233 0.0410083
337 1 0.199822 0.19993 -1.35617e-05 0.0130617 -3.32001 0.0233554 0.0859759 -0.0354407
263 1 0.274759 0.149973 0.0249541 0.0125513 -3.33281 0.00307873 0.00356509 0.00858381
264 1 0.249968 0.175267 0.0247805 0.012228 -3.33544 -0.0722689 -0.0228656 0.0404929
343 1 0.275076 0.199934 0.0250015 0.010048 -3.32721 -0.0303725 0.0089424 -0.0131164
1941 1 0.24988 0.199834 0.049895 0.0115476 -3.3221 0.0201524 0.0453174 -0.0213691
262 1 0.274545 0.174945 -3.40488e-05 0.0208069 -3.32454 0.0973766 0.0229086 0.0165004
268 1 0.300061 0.174874 0.0249577 0.00811906 -3.33101 -0.0420299 -0.00734508 -0.0193838
265 1 0.299781 0.149769 0.000224625 0.0222134 -3.34286 0.113707 0.0435143 -0.0400337
272 1 0.349885 0.17477 0.0249687 0.0121872 -3.32528 0.102592 0.0202805 -0.000450761
1869 1 0.350146 0.149742 0.0499416 0.0169287 -3.33461 -0.0640594 0.0688995 0.0669973
271 1 0.37522 0.150008 0.024834 0.0261458 -3.32095 -0.021302 -0.00123399 0.0921082
1873 1 0.400231 0.149854 0.050075 0.0108461 -3.33715 -0.0440799 0.0514247 0.0247608
276 1 0.400114 0.174954 0.0254493 0.0354778 -3.3276 0.0341695 -0.0361142 -0.109476
1870 1 0.374992 0.174778 0.0502175 0.018655 -3.32545 -0.0177254 0.0157921 -0.0999166
1953 1 0.399576 0.200422 0.0498515 0.0786697 -3.3254 0.120441 -0.122644 0.00218328
275 1 0.42545 0.149679 0.0254503 0.0370182 -3.316 -0.0804639 0.0765982 -0.117167
355 1 0.425284 0.199775 0.0248509 0.0446751 -3.33125 -0.0107711 0.0681114 0.0508745
1874 1 0.425219 0.17533 0.0498327 0.0538335 -3.33005 -0.0965533 -0.131249 0.129484
280 1 0.450324 0.174875 0.0253362 0.0380727 -3.3201 -0.0167428 0.0771095 -0.12717
277 1 0.450012 0.149827 0.000330442 0.0212871 -3.34304 0.0462266 -0.00734986 -0.0833082
284 1 0.500177 0.175358 0.0250502 0.0338459 -3.33062 0.096886 -0.0565961 -0.0361781
363 1 0.525422 0.200175 0.0250242 0.0291829 -3.31796 -0.0446453 -0.100426 -0.104143
359 1 0.475001 0.200247 0.0250868 0.0341546 -3.33473 -0.0359621 -0.0424238 -0.0730332
1878 1 0.475528 0.175279 0.0499748 0.0313343 -3.32928 -0.0394897 -0.0410472 0.0503567
1961 1 0.500377 0.200373 0.049701 0.052108 -3.32382 -0.000132204 -0.107826 0.104344
288 1 0.550121 0.175329 0.0246003 0.0714139 -3.33029 -0.0101496 -0.109714 0.141605
287 1 0.574958 0.149866 0.0251687 0.012733 -3.32838 0.0673987 0.00360545 -0.0792263
1886 1 0.574951 0.174761 0.0497724 0.0199042 -3.32656 -0.0169769 0.0337901 0.062735
292 1 0.600074 0.174503 0.0253727 0.0357596 -3.32524 0.0545887 0.026611 -0.10076
291 1 0.625223 0.149791 0.0254091 0.0140011 -3.33403 -0.00905922 0.0157659 -0.0876603
371 1 0.624999 0.199555 0.0251987 0.0315562 -3.32736 0.0768978 0.0790471 -0.082415
1889 1 0.600007 0.149792 0.0503255 0.0136957 -3.3277 0.0212705 0.0346744 -0.0591902
1890 1 0.625363 0.174976 0.0503332 0.0213701 -3.32343 -0.0115709 -0.0222259 -0.0690822
1969 1 0.600265 0.199639 0.0498984 0.0217157 -3.31772 -0.0397604 0.0649051 0.100168
296 1 0.650088 0.174769 0.0251969 0.0140712 -3.32737 -0.0120569 0.0399159 -0.0336318
1973 1 0.650209 0.200321 0.0501752 0.0294858 -3.3351 -0.014874 -0.0723347 -0.0110493
293 1 0.650486 0.149947 -0.000104116 0.0225613 -3.3283 -0.0848789 0.0213417 0.0872937
300 1 0.700397 0.175541 0.0251581 0.0820367 -3.32548 -0.0879555 -0.138881 -0.0962119
375 1 0.674933 0.200172 0.0249375 0.0169793 -3.32898 0.0379325 -0.0835492 -0.00637596
297 1 0.699566 0.150258 -7.0026e-05 0.0773734 -3.32723 0.177084 -0.0568429 0.0126544
294 1 0.674705 0.175069 -7.18015e-05 0.0496082 -3.32387 0.0854033 0.043587 0.0611563
1977 1 0.700301 0.200098 0.0500653 0.0163265 -3.3204 -0.145124 -0.0158384 0.00214927
1901 1 0.749822 0.150113 0.0500934 0.012012 -3.33169 -0.0174266 -0.0622226 -0.0561117
301 1 0.75027 0.149614 -2.33814e-05 0.0433335 -3.32007 -0.0865524 0.102737 -0.0576976
304 1 0.750029 0.175336 0.0251373 0.0393357 -3.32601 -0.0432103 -0.0695082 -0.000378966
1981 1 0.750352 0.199566 0.0503449 0.0719891 -3.33806 -0.0833761 0.16176 -0.0609505
305 1 0.799702 0.150115 0.000197337 0.0145663 -3.31993 0.00431927 0.036594 -0.112361
303 1 0.774672 0.150143 0.0249715 0.024554 -3.31874 0.0457108 0.000781028 0.0888011
1902 1 0.775086 0.174798 0.0502176 0.0147497 -3.31452 0.0300604 0.0167565 -0.0790296
308 1 0.799885 0.174926 0.0250017 0.0150473 -3.3282 0.0154209 0.13685 0.020959
302 1 0.77482 0.175223 0.000145564 0.0135818 -3.33858 -0.0128187 -0.00827988 -0.0962791
385 1 0.799751 0.200459 7.16538e-05 0.0223561 -3.335 0.0149362 -0.0535983 -0.0178997
309 1 0.850285 0.150385 6.00889e-05 0.0303566 -3.32536 -0.139046 -0.0617886 0.000213531
306 1 0.824722 0.175216 -9.43625e-06 0.0113158 -3.33512 0.0524215 -0.001861 0.0289133
312 1 0.850062 0.175018 0.0252137 0.0272439 -3.3391 -0.0455754 0.0435806 -0.0837415
387 1 0.825184 0.200566 0.0247034 0.0581851 -3.34307 -0.0300595 -0.144364 0.0930439
391 1 0.874608 0.200223 0.0247394 0.0526975 -3.33935 0.0500374 -0.0589799 0.0639641
389 1 0.849876 0.200341 -0.000267945 0.0174804 -3.32562 -0.00749869 -0.101244 0.00410518
310 1 0.874983 0.174879 1.99966e-05 0.0180704 -3.33356 0.0344939 0.133893 -0.013321
316 1 0.900144 0.174922 0.0250951 0.0182406 -3.3214 -0.0677354 0.0863314 -0.091746
314 1 0.925104 0.175492 4.39498e-06 0.0273662 -3.31954 -0.028307 -0.0948168 -0.0397158
1993 1 0.900042 0.199847 0.0497674 0.0229855 -3.32815 0.0152314 0.0892429 0.061904
393 1 0.900051 0.200254 -1.24514e-05 0.0179966 -3.33103 -0.0415372 -0.0599169 0.00260657
244 1 1.00006 0.175512 0.0249279 0.0249554 -3.32793 -0.00964631 -0.0649331 0.0131767
320 1 0.949641 0.17499 0.0246265 0.0451657 -3.31289 0.108932 0.120028 0.0934546
399 1 0.975102 0.200265 0.0249807 0.0232679 -3.3366 -0.0656857 -0.0398358 -0.0177303
328 1 0.0499052 0.225007 0.0248185 0.0169597 -3.32788 0.0193379 0.084403 0.0318823
322 1 0.02505 0.225062 -0.000221246 0.0102926 -3.34407 -0.0657359 -0.0117523 0.00550729
324 1 0.000109226 0.22518 0.0249514 0.0216126 -3.32505 0.0412527 -0.00411917 -0.00560695
403 1 0.0247604 0.250246 0.0248063 0.0127712 -3.32958 0.0764849 -0.0311998 0.0779378
401 1 0.000215223 0.250304 -0.000149746 0.0142266 -3.31954 -0.0581165 -0.0412773 0.0272024
405 1 0.0501553 0.2503 -0.000106122 0.0139345 -3.32633 -0.0750637 -0.0068319 0.0451558
332 1 0.100096 0.225059 0.0251407 0.0180176 -3.33061 -0.0734661 0.0617227 -0.0420293
407 1 0.0748584 0.250224 0.024995 0.00769042 -3.33073 0.0189746 -0.014601 -0.0106576
2009 1 0.0999149 0.249983 0.0501286 0.016515 -3.31612 -0.0220912 0.0323673 -0.0958281
336 1 0.150083 0.225246 0.0249558 0.00866137 -3.3222 -0.0434922 -0.0427633 -0.00359596
1930 1 0.125213 0.225561 0.0501421 0.032426 -3.32093 -0.0467825 -0.115599 -0.0604318
330 1 0.125118 0.224904 0.000177793 0.0226966 -3.33136 -0.0347957 0.0730196 -0.0930782
415 1 0.175429 0.249889 0.0245182 0.0471276 -3.32284 -0.138164 0.0778222 0.111782
411 1 0.125074 0.250128 0.0249622 0.00786696 -3.32804 -0.0187837 -0.0113546 -0.00896245
334 1 0.174983 0.225088 6.29649e-05 0.0102855 -3.32357 0.00522742 -0.0262009 -0.056118
413 1 0.149914 0.24989 -0.000272166 0.00757222 -3.33292 0.0076633 0.0313954 0.00931988
340 1 0.199976 0.225039 0.0248913 0.00759672 -3.32025 0.0496728 -0.00126562 0.0249425
419 1 0.225215 0.249867 0.0252156 0.0295793 -3.33673 -0.0421966 -0.00353035 -0.116589
338 1 0.225082 0.22498 -0.000109927 0.0122971 -3.32822 -0.104002 0.0866065 0.00321082
344 1 0.250031 0.224793 0.024743 0.0248741 -3.32788 0.0182842 0.0349563 0.0906636
423 1 0.274952 0.249946 0.0251113 0.00713393 -3.3288 0.0581406 -0.013057 0.0315602
347 1 0.325093 0.199713 0.0248254 0.0139815 -3.32932 -0.0401372 0.037648 -0.00431617
348 1 0.300015 0.224868 0.0250441 0.00748687 -3.31829 -0.0570327 -0.0258184 -0.0198107
346 1 0.324787 0.224799 -5.16738e-05 0.0125014 -3.3338 0.0531844 -0.0401458 0.00377676
1945 1 0.29995 0.199898 0.0499071 0.00817082 -3.32331 0.0293094 0.025899 0.0192766
1946 1 0.324622 0.224861 0.0496815 0.0285623 -3.32354 0.0740909 -0.0148519 0.133144
352 1 0.349844 0.224749 0.024931 0.0108644 -3.32907 0.0361486 -0.0100193 -0.0441725
1949 1 0.349922 0.199883 0.0499725 0.00363732 -3.33056 -0.00337306 0.0167726 0.00497046
351 1 0.375054 0.199691 0.0249207 0.0112066 -3.33325 -0.0436283 0.0543983 -0.0297724
431 1 0.375292 0.249705 0.0253709 0.0486946 -3.32334 -0.106286 0.0648813 -0.150139
1950 1 0.374553 0.224905 0.0500321 0.0284621 -3.31794 0.0957076 -0.00528944 -0.0180627
356 1 0.400098 0.225056 0.0252149 0.0194053 -3.33585 -0.0121269 -0.0710331 -0.0400604
2033 1 0.399673 0.250038 0.0503146 0.044801 -3.31629 0.118409 -0.0760247 -0.120744
360 1 0.450071 0.22486 0.0252878 0.0341065 -3.33076 -0.0593641 0.0257315 -0.149887
1954 1 0.425095 0.225133 0.0500141 0.0232871 -3.32314 -0.0111913 -0.0624121 -0.0309758
2037 1 0.450099 0.249686 0.0498736 0.0187626 -3.31692 0.0444433 0.0734972 0.0510471
364 1 0.500631 0.224869 0.0246872 0.0651506 -3.32037 -0.206483 0.0525158 0.0576703
362 1 0.525017 0.2248 -0.000107594 0.0181409 -3.32677 0.0644406 -0.0114242 -0.00669992
1958 1 0.475005 0.224739 0.0500214 0.0213754 -3.32948 0.0659006 0.0515312 -0.00713126