ITEM: TIMESTEP
5250
ITEM: NUMBER OF ATOMS
32000
ITEM: BOX BOUNDS pp pp pp
2.1227271180217580e+00 7.8877272881973084e+01
-7.7361938999399626e-01 8.1773619389988738e+01
-7.7374713035312936e-01 8.1773747130348141e+01
ITEM: ATOMS id type xs ys zs c_csym c_peratom fx fy fz
8 1 0.0499213 0.0249685 0.0246361 0.0202728 -3.33967 0.0859454 -0.00688952 0.0822751
83 1 0.0253156 0.0499248 0.025213 0.0464316 -3.34621 -0.101526 0.0696385 -0.0878529
1602 1 0.0253412 0.0248962 0.0495903 0.0489682 -3.35029 -0.0869976 -0.0498022 0.108426
1685 1 0.0499471 0.049826 0.0502787 0.0199975 -3.34662 0.0362026 0.0384959 -0.0538238
1681 1 -0.000128402 0.049495 0.0496612 0.0410077 -3.35376 0.00240855 0.109698 0.0839361
81 1 0.000154235 0.0504281 -8.06581e-05 0.0318644 -3.35507 0.048437 -0.0724476 -0.0184168
5 1 0.0497505 0.000128566 -0.000408701 0.0235981 -3.35038 0.0563118 -0.0240858 -0.0165653
3 1 0.0253055 1.73154e-05 0.0249766 0.0223673 -3.34888 -0.0859574 -0.00144388 -0.0065254
2 1 0.0249987 0.0251802 -0.000292781 0.00848709 -3.35093 -0.0713796 -0.0129791 -0.0182732
12 1 0.0997437 0.0249083 0.0247218 0.0147932 -3.34501 0.0570765 0.056731 0.066054
87 1 0.0749526 0.049947 0.0249265 0.00929387 -3.34919 -0.027037 0.0106654 0.00413411
1606 1 0.0751326 0.0248786 0.0500629 0.0104709 -3.35946 -0.0548382 0.0051832 -0.0289247
1689 1 0.0996892 0.0502546 0.0500464 0.0293855 -3.34961 0.0836444 -0.109922 -0.0139913
6 1 0.0749442 0.0247532 2.58733e-05 0.0338656 -3.34535 -0.0248316 0.0647855 -0.0865969
1609 1 0.0999136 -0.000449944 0.0497444 0.0306254 -3.34275 0.0393161 0.127213 0.0394612
7 1 0.0749006 -6.48698e-05 0.024882 0.00765511 -3.34275 -0.0448076 0.027706 -0.00787974
16 1 0.149682 0.0251955 0.02507 0.0174032 -3.34526 -0.00230447 0.0250236 -0.0377035
91 1 0.124659 0.0500719 0.0247115 0.0245892 -3.35328 -0.00553776 -0.0557767 0.0825675
1610 1 0.124642 0.0247345 0.0499593 0.023662 -3.35801 -0.0169007 0.106832 -0.00134307
1693 1 0.149689 0.0502201 0.0501757 0.0156986 -3.35658 0.0141677 -0.0202556 -0.0859059
93 1 0.150041 0.0505033 1.43697e-05 0.0420172 -3.35404 -0.00322898 -0.159988 -0.0248181
10 1 0.124892 0.0252639 -9.91264e-05 0.0100443 -3.35432 -0.00382603 0.00637013 -0.00930428
20 1 0.199962 0.0248717 0.0249328 0.00873369 -3.34144 -0.0402745 0.0656394 0.0100797
95 1 0.175025 0.0499525 0.0250515 0.017753 -3.34482 -0.102807 -0.00634412 -0.0192275
1614 1 0.174558 0.0250149 0.049852 0.024403 -3.35229 0.105478 0.0192412 0.0481951
1697 1 0.199708 0.0500594 0.0498498 0.00843813 -3.35321 0.0442235 -0.00592496 0.0463095
97 1 0.199791 0.049972 -7.53516e-05 0.00645654 -3.35211 0.00831639 -0.0431056 -0.0316228
15 1 0.174807 0.000104703 0.0247071 0.0288338 -3.34878 0.0331481 -0.0431884 0.163592
14 1 0.174795 0.0248564 0.000113903 0.0170035 -3.355 0.0173728 0.0989944 -0.0767668
24 1 0.249962 0.0250016 0.0244544 0.0247036 -3.35891 -0.0156145 -0.00922988 0.0728413
99 1 0.224935 0.0500433 0.0249957 0.0161803 -3.34989 0.00892998 -0.0462577 -0.0687754
1618 1 0.224746 0.0249761 0.0498306 0.00976133 -3.34477 0.0722561 0.028945 0.00131445
1701 1 0.249918 0.0498235 0.0496969 0.0150181 -3.34335 0.0260181 0.0297662 -0.00659727
103 1 0.274923 0.0498919 0.0247708 0.0185839 -3.35228 -0.0356159 0.0854329 -0.063572
1622 1 0.275054 0.0250813 0.0497315 0.0111721 -3.347 -0.0644383 -0.0303359 -0.0130128
19 1 0.224697 0.000194393 0.0248521 0.0178977 -3.34807 0.076988 -0.0768567 0.0744482
22 1 0.275333 0.0247685 8.23184e-06 0.0407213 -3.35251 -0.0745149 0.0906179 -0.0751667
28 1 0.300288 0.0253803 0.0251246 0.0523001 -3.3374 -0.0620328 -0.117249 -0.0690755
1705 1 0.299863 0.050044 0.0496196 0.0253693 -3.34768 0.0838327 0.0565041 0.0897186
107 1 0.325077 0.050125 0.0246368 0.0323669 -3.34089 0.0469742 -0.0174907 0.0710639
1626 1 0.325174 0.0253397 0.0498921 0.0172464 -3.34839 -0.0138332 -0.089734 0.016145
105 1 0.300012 0.0500359 -0.000158503 0.00621976 -3.36065 0.00769705 0.0147717 -0.0257542
26 1 0.325297 0.0246517 0.00012034 0.0474693 -3.35569 -0.0636287 0.136538 -0.0860231
32 1 0.34994 0.0247768 0.0252298 0.0286662 -3.34556 0.0367441 0.0781129 -0.0480083
1709 1 0.350172 0.0501961 0.0499982 0.019574 -3.35713 -0.0376941 0.0132772 -0.0147843
111 1 0.374841 0.0501181 0.0247822 0.0237979 -3.33768 -0.00263603 -0.045638 0.0967999
1630 1 0.375061 0.0251663 0.0501298 0.00551935 -3.34808 0.015082 -0.0412843 -0.0178428
31 1 0.375131 5.95606e-05 0.0253401 0.0157252 -3.35027 0.0256773 -0.0283526 -0.0127752
36 1 0.399793 0.0252389 0.0252204 0.0152334 -3.34678 0.0503212 -0.063205 -0.0381658
1713 1 0.399783 0.0501797 0.049915 0.0106852 -3.34788 0.0581481 0.024842 0.0125492
115 1 0.424851 0.0503187 0.0251187 0.0125727 -3.34329 0.00917217 -0.0190681 -0.00357755
1634 1 0.424844 0.0250497 0.049812 0.0193831 -3.34479 0.0274828 0.0369472 0.0807648
113 1 0.399897 0.0503023 0.000454779 0.0436069 -3.35185 0.0309227 -0.112313 -0.153993
34 1 0.425038 0.0251062 0.000230165 0.0054938 -3.36178 0.0160587 -0.0187818 0.0260544
40 1 0.449897 0.0253387 0.0252731 0.0359431 -3.34693 0.05284 -0.105814 -0.109463
1717 1 0.450066 0.0499725 0.049553 0.0345914 -3.35385 -0.0158363 0.103613 0.129509
119 1 0.475137 0.0500559 0.0250147 0.0130065 -3.35408 0.0227337 0.0646586 -0.0389395
1638 1 0.475209 0.0250703 0.0500608 0.0106357 -3.34711 0.0119948 -0.013676 -0.0400053
117 1 0.450098 0.0500846 7.83859e-05 0.0129544 -3.35082 -0.00290068 -0.063184 -0.011123
1721 1 0.500321 0.0501767 0.0500577 0.0190647 -3.33689 -0.0710542 -0.0303812 -0.111196
121 1 0.500113 0.0499748 -0.000172219 0.0106548 -3.35473 -0.0972518 0.00235358 0.0376085
44 1 0.499913 0.0250674 0.025011 0.00882595 -3.36025 0.0480464 -0.0416598 0.0214225
123 1 0.524757 0.0501604 0.0249703 0.0240356 -3.34785 0.0329499 -0.0214029 0.0158967
1642 1 0.525208 0.0250355 0.0501824 0.0140068 -3.34072 -0.0384754 -0.0824445 -0.096405
48 1 0.549651 0.0252845 0.0252243 0.0438657 -3.35 0.114416 -0.0724814 0.0224732
1725 1 0.549978 0.0498342 0.0502666 0.0171148 -3.34958 0.0143607 0.0393548 -0.0962416
125 1 0.550201 0.0498225 -0.000133258 0.0200353 -3.35055 -0.0104683 0.0921453 0.0476566
127 1 0.575358 0.0499341 0.0251439 0.0269087 -3.35546 -0.0604364 -0.0165862 -0.0111812
1646 1 0.575196 0.0248529 0.0501829 0.0106971 -3.35886 -0.0666571 -0.0127443 -0.0185962
52 1 0.600095 0.0246718 0.0253451 0.0342506 -3.34364 -0.0700302 0.0437873 -0.12483
1729 1 0.600251 0.0501775 0.0501255 0.0203748 -3.33999 -0.0381074 -0.0554455 -0.00504551
46 1 0.574781 0.0249876 0.000123873 0.0132897 -3.35234 0.0708021 -0.0322886 0.0474351
1649 1 0.600131 1.31371e-05 0.0501198 0.010109 -3.3464 -0.0611483 -0.041985 0.00284923
47 1 0.574739 -7.78618e-05 0.025328 0.0196109 -3.35824 0.0325955 0.0198474 -0.028755
131 1 0.624657 0.0501064 0.0248042 0.0365878 -3.34384 0.0497138 0.0181354 0.0344433
1650 1 0.624743 0.0251596 0.0498393 0.0313877 -3.33603 0.0359118 -0.020518 0.120403
51 1 0.625153 -9.70485e-05 0.0250166 0.0156859 -3.34498 -0.0256975 -0.0357378 -0.0501997
56 1 0.649754 0.025099 0.0254256 0.039007 -3.3493 0.115262 -0.0157616 -0.115322
1733 1 0.649826 0.0502108 0.0497963 0.0201051 -3.34792 0.0247103 -0.0221048 0.037691
1653 1 0.649668 0.000114032 0.049946 0.0408463 -3.34416 0.109278 -0.0295437 0.0313513
135 1 0.675058 0.0500385 0.0249272 0.0179838 -3.35663 0.0450161 0.00731096 0.0619094
1654 1 0.675016 0.0251655 0.050096 0.0104034 -3.35839 0.0410331 -0.025859 -0.0666925
60 1 0.699956 0.0250418 0.0248896 0.0241678 -3.34358 -0.0487715 0.0212332 0.167441
1737 1 0.700113 0.050308 0.0504882 0.0325662 -3.34149 -0.0357272 -0.0609523 -0.124554
137 1 0.699662 0.0501366 -5.21624e-05 0.0247846 -3.35197 0.0797506 0.0215045 0.0226128
55 1 0.675197 -0.000255243 0.0253186 0.0398085 -3.34954 -0.0885305 0.0890916 -0.0261937
1657 1 0.700292 -7.92298e-05 0.0499682 0.0167094 -3.35571 0.0391283 0.0152687 0.0148784
139 1 0.724795 0.0499202 0.0253579 0.0276965 -3.35246 0.0438929 0.0660315 -0.0636624
1658 1 0.724955 0.0252709 0.0503561 0.0265069 -3.35306 0.0630772 -0.0493675 -0.105566
59 1 0.724998 -6.53881e-05 0.0248674 0.0240864 -3.34217 -0.00292305 0.0332738 0.0971332
64 1 0.750053 0.0252744 0.0250573 0.0151136 -3.3474 -0.0145962 -0.0288682 0.0381852
143 1 0.774786 0.050101 0.0249514 0.0134406 -3.34346 0.11174 -0.0627992 0.039246
1662 1 0.775388 0.0248444 0.0501456 0.0251961 -3.35459 -0.0895968 0.106384 -0.0328586
1741 1 0.750201 0.0502695 0.0502317 0.0219518 -3.35443 -0.00852895 -0.130481 0.0257727
63 1 0.775041 0.000362251 0.024923 0.0211054 -3.35226 -0.014716 -0.0796284 -0.0373716
1661 1 0.749903 0.000242512 0.0498495 0.0328318 -3.35774 0.0209327 0.0233622 0.0633081
68 1 0.799996 0.0248651 0.0250745 0.0180841 -3.35031 -0.0212974 0.0930073 -0.075961
147 1 0.824543 0.0500683 0.0251031 0.0280559 -3.35301 -0.00786067 0.0136238 -0.0467056
1666 1 0.824964 0.0247101 0.0497528 0.0303624 -3.34227 -0.0254396 0.0704428 0.0617174
1745 1 0.800008 0.0501842 0.0504164 0.0355935 -3.35317 -0.0502437 -0.0640873 -0.111767
1665 1 0.800115 -0.00019333 0.0500246 0.0193901 -3.33588 -0.0181489 0.0361495 -0.122447
67 1 0.825233 0.000113071 0.0247621 0.0212665 -3.34265 -0.0940713 -0.0496913 0.0522331
65 1 0.800162 0.000261323 -0.000354067 0.0307104 -3.34643 -0.0254357 -0.0523331 0.121364
72 1 0.849764 0.0250516 0.0249823 0.0147265 -3.34382 0.0618326 0.0803023 0.0211196
151 1 0.875296 0.0498509 0.0255497 0.0815047 -3.3565 -0.104067 0.00166173 -0.157845
1670 1 0.874752 0.0252438 0.0501839 0.0268593 -3.35795 0.0261144 -0.082664 0.00105093
1749 1 0.849247 0.0499294 0.0501275 0.0668984 -3.34924 0.101024 0.0559946 -0.0342641
1669 1 0.850219 -9.79368e-05 0.049793 0.0195258 -3.34996 -0.0197229 0.0268307 0.0435349
76 1 0.899814 0.0248987 0.0250088 0.0154116 -3.35043 0.0848215 0.0272279 0.00366553
155 1 0.924689 0.0497782 0.0249156 0.0163741 -3.34896 -0.0434768 0.0442429 -0.00899991
1674 1 0.924871 0.0251047 0.0501069 0.0167388 -3.34767 -0.0279081 -0.0684733 -0.0358444
1753 1 0.900162 0.0498808 0.0503858 0.0359277 -3.34063 -0.02913 0.0141812 -0.0454297
1673 1 0.900044 -0.000183249 0.0497913 0.0275681 -3.35039 -0.0585129 0.101758 0.0949039
4 1 1.00006 0.0249496 0.0246844 0.0146564 -3.34858 0.0152073 -0.0228723 0.0219808
78 1 0.975311 0.0253081 -0.00024527 0.0396299 -3.35758 -0.101237 -0.0556936 0.0823026
80 1 0.949593 0.0250964 0.0248917 0.0305582 -3.35776 0.108204 -0.046353 -0.0889403
159 1 0.975021 0.0499089 0.0248047 0.0151026 -3.34002 -0.0227509 -0.0546172 0.00370473
1678 1 0.974849 0.0247658 0.0496676 0.00731947 -3.35324 -0.0309376 0.00894681 0.0210016
1757 1 0.950044 0.0498557 0.049734 0.0174853 -3.34439 -0.00816783 0.00608108 0.0353771
79 1 0.974956 -0.000214716 0.0248515 0.0091712 -3.35325 -0.0290064 0.0648313 -0.0333838
157 1 0.949541 0.0503014 -0.000140211 0.042957 -3.35252 0.0387745 -0.126369 -0.0388785
88 1 0.0499617 0.0747966 0.024836 0.0221174 -3.34846 0.0343167 0.0743014 0.0501487
163 1 0.0249594 0.099767 0.0252016 0.0318205 -3.3514 0.0127646 0.0588718 -0.0315634
1682 1 0.0248137 0.07525 0.0500777 0.0334452 -3.36137 -0.0163808 -0.0755425 0.02296
1765 1 0.0500956 0.0999292 0.0498044 0.0176883 -3.35419 -0.0167288 0.0388302 0.0652557
161 1 8.88213e-05 0.100061 0.000165871 0.0222546 -3.35096 -0.0874618 -0.0384005 -0.00809753
165 1 0.0500574 0.100575 -0.00016628 0.0546583 -3.34203 0.00250462 -0.161376 0.0657082
92 1 0.099983 0.0747207 0.0252326 0.0519463 -3.34831 -0.148993 0.0707466 -0.0988112
167 1 0.0749829 0.0999894 0.0248807 0.0113043 -3.36342 -0.00289223 -0.0575441 -0.0382615
1686 1 0.0747168 0.074895 0.0503219 0.0230504 -3.35123 0.027035 0.0348971 -0.0795072
1769 1 0.0997091 0.100029 0.0500301 0.0132384 -3.34341 0.0017504 -0.0643533 -0.00367859
169 1 0.100217 0.100046 -0.000322999 0.0396071 -3.34325 -0.148092 -0.0405364 0.10049
96 1 0.149785 0.0750177 0.0250107 0.00915967 -3.34767 0.0672989 -0.014087 0.0242903
171 1 0.124643 0.0995502 0.0250741 0.0438575 -3.34439 0.0223967 0.171607 -0.0401478
173 1 0.14989 0.0998843 -9.2826e-06 0.0088405 -3.35656 -0.00217502 0.0136468 -0.0176896
1690 1 0.124849 0.075337 0.05009 0.0209674 -3.34138 -0.0138601 -0.0889999 0.0165262
1773 1 0.149618 0.100307 0.0498826 0.0182265 -3.34892 0.0712131 -0.0443604 0.0403504
90 1 0.124839 0.0750736 0.000236169 0.0296387 -3.34114 0.00602341 -0.0233834 -0.134116
100 1 0.199732 0.0745434 0.0246522 0.0614404 -3.34797 0.0431735 0.16645 0.0564926
175 1 0.174953 0.0999271 0.0250105 0.012922 -3.36035 0.0175959 0.0272701 -0.0157951
1694 1 0.174897 0.0752886 0.0498648 0.011355 -3.35365 -0.0643742 -0.036822 0.0141563
1777 1 0.199896 0.100122 0.0499716 0.0114387 -3.33975 0.00729849 -0.0041257 -0.0992831
94 1 0.174766 0.0749478 -0.000383397 0.0271568 -3.34181 0.0506343 0.0720372 0.0950193
177 1 0.199916 0.10029 0.00011572 0.0226373 -3.35351 -0.0329296 -0.103515 -0.00318627
104 1 0.249837 0.0751305 0.0250786 0.0178897 -3.3534 0.0539947 -0.017671 -0.0994548
179 1 0.224742 0.0998717 0.0252171 0.0335574 -3.35405 0.0152237 0.0227878 -0.0841651
1698 1 0.2251 0.0751754 0.0497713 0.0204165 -3.35124 -0.070841 -0.0444029 0.0486487
1781 1 0.2504 0.0999837 0.0500206 0.031057 -3.35069 -0.0623476 0.000428788 0.0255776
183 1 0.27528 0.10007 0.0250775 0.0173027 -3.34811 -0.079186 -0.0161608 0.045216
1702 1 0.274993 0.0748829 0.0498372 0.00893362 -3.35571 0.038172 0.0583292 0.0307847
98 1 0.22483 0.0748827 -0.000220169 0.0149398 -3.34679 -0.0160004 0.0871059 0.0746867
108 1 0.300353 0.0749997 0.0251919 0.0396588 -3.34303 -0.118267 -0.00084892 -0.0330526
1785 1 0.300279 0.100233 0.0502848 0.0217042 -3.35101 -0.0821358 -0.0706114 0.00571165
187 1 0.324815 0.100058 0.0251954 0.0145104 -3.34557 0.0495816 -0.00153225 -0.00664528
1706 1 0.325046 0.0752802 0.0502734 0.034503 -3.35629 0.0327148 -0.112958 -0.0529331
185 1 0.299535 0.100161 0.000300903 0.0421201 -3.33735 0.189302 0.0140569 -0.0430304
112 1 0.350046 0.0745883 0.0249058 0.0703997 -3.35144 -0.0568673 0.184809 0.0230815
1789 1 0.350161 0.10008 0.0500572 0.0118935 -3.34978 0.00401097 0.036275 -0.0602794
189 1 0.349802 0.100195 0.00046735 0.041976 -3.35404 0.0672952 -0.0687553 -0.0905066
191 1 0.375211 0.100025 0.024776 0.0334661 -3.34778 -0.0452628 0.0495013 0.0578918
1710 1 0.374841 0.0756076 0.0498188 0.0489011 -3.33854 -0.00242217 -0.108131 0.0384682
110 1 0.375169 0.0750433 -1.09061e-05 0.0177792 -3.3406 -0.0428559 0.0609358 0.0147345
116 1 0.399786 0.0752029 0.0253177 0.0326763 -3.34347 0.090847 0.0274268 -0.0818785
1793 1 0.39996 0.10046 0.0501971 0.0235825 -3.35339 0.0823078 0.0152881 -0.0274579
195 1 0.425047 0.100367 0.024709 0.0209135 -3.35263 -0.0284347 -0.0377359 0.110332
1714 1 0.424774 0.075495 0.0499934 0.0278943 -3.34999 0.0706513 -0.0703709 -0.0210831
114 1 0.424996 0.0747262 -0.000144527 0.0333858 -3.34417 -0.0430099 0.06643 0.0241274
120 1 0.44963 0.075423 0.0247358 0.0401487 -3.35212 0.112042 -0.065515 0.0787138
1797 1 0.449968 0.10002 0.05016 0.0353586 -3.35182 -0.0182737 0.0797635 -0.116385
199 1 0.475006 0.100248 0.02474 0.0163293 -3.35952 -0.0369028 -0.0137226 -0.0060036
1718 1 0.475068 0.0752775 0.0497095 0.0158627 -3.35654 0.0230278 -0.0609269 0.0107218
1801 1 0.499727 0.100246 0.050306 0.0553058 -3.34329 0.075323 -0.0793308 -0.118859
124 1 0.500025 0.0753933 0.0247305 0.0352984 -3.35044 -0.0275062 -0.0587386 0.0296605
118 1 0.47485 0.0749354 -0.00024471 0.0179969 -3.34764 0.0762099 0.0232483 0.0980854
203 1 0.525387 0.0998243 0.0250041 0.0320144 -3.35012 -0.0735734 0.0197577 0.0566956
1722 1 0.524656 0.0751018 0.0499766 0.0503323 -3.35219 0.122211 0.0413366 -0.00699805
122 1 0.525248 0.0747524 -0.000107828 0.0200417 -3.34441 0.000238612 0.0217685 -0.0269685
128 1 0.550005 0.0746328 0.0251311 0.022732 -3.34993 -0.00218752 0.0169961 0.0168693
1805 1 0.55045 0.0998141 0.0505569 0.0898627 -3.35244 -0.1198 0.00634658 -0.118131
201 1 0.500592 0.100052 -7.92784e-05 0.0436698 -3.36338 -0.110732 0.00764099 -0.0135232
207 1 0.574784 0.0996355 0.0250136 0.0260419 -3.35461 0.0222783 0.102857 0.0182834
1726 1 0.57501 0.0746761 0.0499661 0.0291398 -3.34639 0.0383292 0.0802058 0.0172214
132 1 0.600175 0.0752501 0.0250903 0.0211385 -3.34978 -0.0558549 -0.0353349 -0.0414115
1809 1 0.600204 0.100308 0.0500491 0.0233098 -3.34642 -0.040156 -0.0550586 -0.0530157
126 1 0.574819 0.0750758 -9.68028e-05 0.0172256 -3.34424 0.0106278 -0.0613499 0.0613322
211 1 0.625025 0.100105 0.0249594 0.0100009 -3.34609 -0.0104941 -0.0408357 0.0530359
1730 1 0.624888 0.0751476 0.0499429 0.0131179 -3.34114 0.074344 -0.0163612 -0.0299173
136 1 0.650123 0.0748592 0.0248331 0.0235152 -3.34894 -0.0645638 0.0404192 0.0538502
1813 1 0.650272 0.0996199 0.050015 0.0364637 -3.36119 -4.07666e-05 0.136914 0.0284292
215 1 0.674953 0.0999294 0.0248888 0.0261315 -3.34128 0.0101223 0.0209614 0.106178
1734 1 0.675173 0.0750662 0.0500544 0.0103534 -3.349 -0.0280953 -0.0303472 0.0152033
140 1 0.700349 0.0750679 0.0253897 0.0388144 -3.34998 -0.0862271 -0.0496278 -0.0705714
1817 1 0.699706 0.100024 0.0500937 0.0392365 -3.34677 0.0629363 0.00682108 0.0337154
217 1 0.700179 0.100249 0.000612018 0.0530747 -3.34038 -0.0236392 -0.0750852 -0.16952
219 1 0.724848 0.0999559 0.0253773 0.0174294 -3.34611 0.0897596 0.026467 -0.00320433
1738 1 0.725308 0.0750333 0.0503457 0.0153095 -3.34927 -0.0329824 0.0546103 -0.0243152
144 1 0.750185 0.0750374 0.025199 0.0188909 -3.34408 -0.123219 0.0170087 -0.00266304
223 1 0.774676 0.099959 0.0247224 0.0332988 -3.34336 0.0672973 0.0673154 0.117978
1742 1 0.774876 0.0749453 0.0503405 0.0175953 -3.34689 0.00835053 0.048603 -0.030849
1821 1 0.750176 0.100245 0.0501869 0.0227798 -3.34332 -0.0267334 -0.055295 -0.0702359
148 1 0.799437 0.0749797 0.0251238 0.0349832 -3.34768 0.0745946 -0.00528468 -0.0378272
227 1 0.824654 0.0999213 0.0248493 0.0226132 -3.35741 0.107616 0.0149592 0.0107167
1746 1 0.824731 0.0755979 0.0499573 0.054519 -3.34812 0.0484849 -0.07622 -0.0274165
1825 1 0.799808 0.100127 0.0498541 0.011819 -3.35555 -0.04808 0.0189663 0.0326135
146 1 0.825078 0.0751538 -7.67342e-05 0.0184021 -3.34515 -0.0837369 -0.00662287 0.0454689
152 1 0.849946 0.0745444 0.024916 0.0519083 -3.35964 0.0238318 0.141622 0.0570483
231 1 0.875135 0.100159 0.0249776 0.0155218 -3.34828 -0.0481109 -0.0881355 0.00972246
1750 1 0.875076 0.0745942 0.0497446 0.0674139 -3.3487 -0.128349 0.0865565 0.103965
1829 1 0.850288 0.100221 0.0497848 0.033498 -3.35411 -0.0833703 -0.105249 -0.0167789
229 1 0.850406 0.0998581 -1.16998e-05 0.0396297 -3.35177 -0.120329 0.0301646 0.0316019
156 1 0.899863 0.0751438 0.0252465 0.0278292 -3.34709 0.0565333 -0.0742455 -0.0447854
235 1 0.924868 0.0997803 0.0252099 0.0128416 -3.35914 0.0966318 -0.0076231 -0.00849341
1754 1 0.925035 0.0747772 0.0501312 0.0149953 -3.35611 -0.0354463 0.00108062 -0.0525128
1833 1 0.899683 0.0998801 0.0503265 0.0376456 -3.33319 0.033936 -0.0269628 -0.116628
1761 1 0.999451 0.100148 0.0498976 0.0344022 -3.3515 0.104703 -0.0623003 0.071419
84 1 0.999604 0.074957 0.0251744 0.0278774 -3.3495 0.120306 -0.0167166 -0.0371603
160 1 0.949934 0.0743601 0.0247927 0.0543863 -3.35042 -0.0739869 0.151403 0.0747208
239 1 0.9745 0.0995329 0.0249604 0.0370728 -3.34405 0.0545696 0.0435686 0.0187974
1758 1 0.974962 0.0749343 0.0501341 0.0225716 -3.35132 -0.0224677 -0.0593625 -0.0118492
1837 1 0.949788 0.0997681 0.0503438 0.0325534 -3.34425 0.0668212 -0.0316954 -0.109547
237 1 0.949884 0.0997972 0.000122312 0.0129536 -3.34995 -0.0598903 -0.0193444 -0.0228762
158 1 0.974874 0.0747824 2.62924e-06 0.0152626 -3.34566 0.0222387 0.0564235 -0.0818441
162 1 0.0250616 0.124669 0.000279135 0.0482736 -3.3499 -0.0805385 0.185879 -0.0344199
168 1 0.0500662 0.125295 0.025084 0.0155915 -3.35619 0.0172061 -0.0400153 -0.0122126
243 1 0.0245559 0.150058 0.0251405 0.025083 -3.36251 0.0574006 0.000443732 -0.04203
1762 1 0.0249484 0.125051 0.0498001 0.0139076 -3.35026 -0.0293731 -0.0234281 0.0149215
1845 1 0.0500119 0.150191 0.0499836 0.00376097 -3.34183 -0.0419665 -0.00700052 -0.0193853
245 1 0.0503628 0.149996 0.000244886 0.033846 -3.35502 -0.111833 0.0137636 -0.0193123
172 1 0.0996169 0.124856 0.0249041 0.0259053 -3.35246 0.0898782 0.0610182 -0.0537885
247 1 0.0751251 0.150517 0.0252087 0.048273 -3.33755 -0.00223495 -0.134383 -0.0633775
1766 1 0.0750989 0.125328 0.0498385 0.0175224 -3.33723 -0.0594833 -0.0814816 0.0131086
1849 1 0.100112 0.149957 0.0499452 0.0173427 -3.34208 0.0107641 0.0575832 -0.0375125
176 1 0.149896 0.12508 0.0249704 0.0103144 -3.34796 -0.0334084 -0.079669 -0.0222035
251 1 0.125107 0.149858 0.0247848 0.0178444 -3.36177 -0.111364 0.0558813 0.0217357
1770 1 0.124688 0.124908 0.049658 0.0254887 -3.34064 0.0582042 0.0455649 0.0496179
1853 1 0.150162 0.149927 0.0498369 0.0214866 -3.34951 -0.105959 0.0534581 0.055018
253 1 0.149889 0.150138 0.000131765 0.0131324 -3.3454 -0.018701 0.0168147 -0.0658979
180 1 0.200103 0.12531 0.0249884 0.0234271 -3.35429 -0.0293159 -0.0695699 0.0609355
255 1 0.175014 0.150048 0.0245958 0.0378585 -3.34546 0.0135829 0.0328667 0.11342
1774 1 0.174716 0.12515 0.0499807 0.0184295 -3.3454 0.0634255 -0.0163959 -0.0243214
1857 1 0.199989 0.149771 0.0503144 0.0568345 -3.35338 0.0503314 0.0623027 -0.0935727
174 1 0.17456 0.124904 0.000127741 0.0307763 -3.34655 0.0542209 0.00756741 -0.0248825
184 1 0.249868 0.124943 0.0249499 0.0156382 -3.35619 0.00542396 0.000670046 0.0176343
259 1 0.225002 0.150347 0.0253658 0.035131 -3.35471 -0.0124633 -0.088674 -0.0849506
1778 1 0.225425 0.124802 0.0500298 0.0330292 -3.3486 -0.0640023 0.0414172 -0.00974395
1861 1 0.250168 0.14993 0.0502676 0.00969131 -3.34343 0.0402952 -0.00330901 -0.0576189
263 1 0.274952 0.149744 0.0250667 0.021105 -3.34921 0.00227977 0.109784 0.0453232
1782 1 0.274961 0.125086 0.0501869 0.0131922 -3.34347 -0.0333952 -0.0516477 0.013062
178 1 0.224866 0.125076 9.80152e-05 0.00465842 -3.34865 0.0470246 0.0466796 -0.0106007
261 1 0.249964 0.150123 8.13573e-05 0.00460803 -3.35622 -0.0205765 -0.0324066 0.00361577
188 1 0.299888 0.125144 0.0256002 0.0333806 -3.34838 0.0414718 -0.0185603 -0.105411
1865 1 0.299874 0.15015 0.0504136 0.0401845 -3.34827 0.0810449 -0.0434816 -0.125873
267 1 0.324956 0.149728 0.0251309 0.0238229 -3.35075 -0.00162226 0.0796656 0.0404246
1786 1 0.325406 0.125087 0.0500874 0.021336 -3.34629 -0.0227662 0.0188459 0.0227213
186 1 0.325077 0.125201 0.000454179 0.0233265 -3.35229 -0.0831857 -0.0465434 -0.065709
192 1 0.35015 0.124926 0.0251092 0.00984982 -3.35293 0.0802569 0.0543379 0.0363682
1869 1 0.350406 0.150077 0.0499221 0.0165024 -3.36173 0.00122039 -0.0124881 0.106593
271 1 0.375684 0.150149 0.0250185 0.0454184 -3.33812 -0.116162 -0.0608954 0.0450164
1790 1 0.375468 0.125178 0.0502842 0.0133413 -3.35522 -0.0693909 0.0353677 -0.044471
190 1 0.375176 0.125108 8.52826e-05 0.0115731 -3.35858 0.00074008 -0.0304831 -0.0281896
196 1 0.400146 0.125131 0.0251953 0.0218306 -3.34507 -0.00266715 -0.014197 -0.0702895
1873 1 0.400299 0.150562 0.0500915 0.0271413 -3.34068 -0.044222 -0.0991768 0.01352
275 1 0.424601 0.150326 0.0247938 0.0336497 -3.32993 0.0557085 -0.0304647 -0.00309232
1794 1 0.425305 0.125715 0.0497941 0.0524185 -3.3456 -0.0774168 -0.205598 0.0407179
273 1 0.399896 0.150525 0.000150446 0.0399864 -3.3402 0.0207833 -0.139707 -0.147811
194 1 0.425171 0.12514 -5.42269e-05 0.015096 -3.3462 -0.12343 0.014742 -0.0353077
200 1 0.449827 0.125511 0.0247267 0.0310587 -3.34995 0.107576 -0.0783544 0.0258772
1877 1 0.449789 0.150165 0.0497095 0.029192 -3.34435 0.1337 0.00982547 0.0252846
279 1 0.475478 0.150087 0.0251091 0.0536014 -3.35036 -0.147145 -0.00621205 -0.0857569
1798 1 0.474954 0.124941 0.0498909 0.0138274 -3.3458 -0.0525913 0.0652388 0.010607
277 1 0.449507 0.15018 -0.000301317 0.0500329 -3.34833 0.164802 -0.0388514 0.106771
204 1 0.499883 0.125213 0.0249994 0.0342046 -3.34113 0.0767261 -0.109375 -0.056913
283 1 0.525458 0.149729 0.0249983 0.0570685 -3.35168 -0.109712 0.14619 0.00908143
1802 1 0.524945 0.124539 0.0495411 0.110465 -3.35242 0.0728163 0.0903998 0.188803
1881 1 0.500137 0.149834 0.0500198 0.0142793 -3.35398 0.0677518 0.0349029 0.0319212
208 1 0.549909 0.124867 0.0251961 0.0232921 -3.34317 0.13509 -0.0202829 -0.0381762
1885 1 0.549963 0.150355 0.0502603 0.0584859 -3.34537 0.0338073 -0.124501 -0.122739
287 1 0.57481 0.149925 0.0247423 0.0299248 -3.36202 0.0251114 0.0520877 0.0574658
1806 1 0.574981 0.124947 0.0499342 0.0133952 -3.35413 0.0241934 0.0619417 -0.00911109
212 1 0.600046 0.124906 0.0249918 0.00984572 -3.35761 -0.0678026 0.0470706 -0.0255798
1889 1 0.599864 0.150334 0.0498349 0.0348404 -3.35363 0.00124449 -0.0490619 0.0313281
206 1 0.574899 0.124954 -0.000317293 0.0217501 -3.35508 0.0210846 0.00519407 0.132273
289 1 0.600173 0.150004 6.84354e-05 0.00924037 -3.35079 -0.0230656 0.00959993 0.0312405
291 1 0.625208 0.150108 0.0251082 0.0124805 -3.34065 -0.0756636 -0.0393118 -0.0101278
1810 1 0.625093 0.125327 0.049897 0.0284741 -3.34691 0.0574157 -0.103279 0.0413647
216 1 0.649931 0.124786 0.0251093 0.0166991 -3.34905 0.0553132 0.0925807 0.0594488
1893 1 0.6501 0.149935 0.0502045 0.0114778 -3.35393 0.104463 0.0192651 0.0358978
214 1 0.674877 0.125053 0.000174839 0.0104849 -3.34437 0.0558351 0.0237003 -0.0226885
295 1 0.67529 0.149766 0.0249757 0.0349534 -3.3539 -0.0948698 0.0906925 0.0626242
1814 1 0.6751 0.125275 0.0503936 0.0316741 -3.35311 -0.0742153 -0.0733293 -0.0425229
220 1 0.699698 0.125077 0.0252041 0.0169968 -3.33964 0.0676913 0.00558442 0.0104986
1897 1 0.700071 0.150061 0.0502686 0.0177225 -3.34141 0.00517862 0.0650383 -0.0569431
299 1 0.724868 0.15034 0.025203 0.018142 -3.35595 0.0447685 -0.0881839 -0.0376435
1818 1 0.724795 0.124953 0.0499152 0.0274835 -3.34304 0.0431533 0.0377757 -0.00125124
224 1 0.749958 0.125021 0.0252597 0.0123367 -3.35461 -0.0368836 0.038272 -0.0584856
303 1 0.77465 0.150023 0.0249841 0.0271533 -3.35618 0.103589 0.0432023 0.0158455
1822 1 0.775 0.125159 0.0500073 0.0112421 -3.34499 0.0156181 -0.0127133 -0.0316318
1901 1 0.749845 0.150084 0.050283 0.0235349 -3.35208 0.00912862 0.0579498 -0.072357
218 1 0.72465 0.125016 0.000335102 0.0316694 -3.35266 0.114702 0.0769985 -0.00993133
228 1 0.799784 0.125144 0.0247675 0.0178068 -3.35777 0.0262966 -0.0270053 0.0377351
307 1 0.824969 0.149741 0.0249287 0.022116 -3.34637 -0.012554 0.0707167 0.0291939
1826 1 0.825211 0.125008 0.0499522 0.0165523 -3.34978 -0.0684618 -0.00169291 -0.0308402
1905 1 0.800207 0.150066 0.0500437 0.0180273 -3.34689 -0.0631877 -0.0135342 -0.0790406
226 1 0.825094 0.124919 -0.000270456 0.0182267 -3.35291 -0.0832124 -0.0518619 0.023656
232 1 0.849856 0.124892 0.024646 0.0270331 -3.34932 0.0321584 -0.000498629 0.0975421
311 1 0.874919 0.150099 0.0249014 0.0136408 -3.34813 0.0728315 -0.0704112 0.0212394
1830 1 0.87522 0.124877 0.0498838 0.0154464 -3.34362 -0.101116 0.0934612 -0.0163961
1909 1 0.850165 0.150117 0.0498269 0.011496 -3.35116 -0.0214133 -0.0819568 0.051065
309 1 0.849707 0.149954 6.56778e-05 0.022334 -3.34817 0.0661423 0.03472 -0.061838
230 1 0.875068 0.125137 0.000260168 0.0245064 -3.34491 -0.0501262 -0.0151084 -0.044418
236 1 0.90009 0.124992 0.0251169 0.00727977 -3.34814 0.002923 0.0383986 0.00284477
313 1 0.900017 0.149983 -9.74818e-05 0.015901 -3.34901 -0.0383357 0.0332112 0.0519895
315 1 0.92493 0.149813 0.0248969 0.0113584 -3.34839 0.000216326 -0.0330962 0.0882433
1834 1 0.925098 0.124514 0.0499484 0.0311693 -3.35347 -0.00875294 0.126097 -0.0312878
1913 1 0.899986 0.14967 0.0502564 0.0188003 -3.35335 -0.00247285 0.0568714 -0.0841928
234 1 0.924877 0.124849 -5.29886e-05 0.00640192 -3.34108 0.0179133 -0.00968356 0.0608617
164 1 0.999604 0.124913 0.0250642 0.00967774 -3.35292 0.0326714 -0.000405014 -0.0221335
1841 1 0.999453 0.150031 0.0501937 0.0323363 -3.35022 0.0730706 -0.00485857 -0.0827871
240 1 0.950388 0.12478 0.0248719 0.0569341 -3.34437 -0.197143 -0.0298039 0.0623165
319 1 0.974552 0.14977 0.0247376 0.0275977 -3.34489 0.0992353 0.0974621 0.0580034
1838 1 0.974753 0.12482 0.0499021 0.0105918 -3.34019 -0.0218606 0.00330181 0.0589111
1917 1 0.949978 0.149855 0.0500555 0.00867165 -3.3472 -0.0497516 -0.0299896 -0.041707
238 1 0.974722 0.124639 1.44649e-05 0.0116438 -3.3406 0.0497151 0.0397559 -0.0483483
248 1 0.050119 0.175104 0.0251267 0.00580739 -3.34859 -0.0439237 0.0172131 -0.00900929
323 1 0.024887 0.199878 0.0252294 0.0207105 -3.35159 0.0319623 0.0689507 -0.0450995
1842 1 0.024981 0.17505 0.0501728 0.0105865 -3.35454 -0.00199716 -0.00630262 -0.0375896
1925 1 0.050078 0.200392 0.050157 0.0142563 -3.35217 -0.0288471 -0.0903596 -0.0623482
242 1 0.0251198 0.175004 0.00017848 0.0136429 -3.35312 -0.0570085 -0.0300459 0.00381309
252 1 0.0997458 0.175159 0.024592 0.0338711 -3.34815 0.106302 -0.0102038 0.137828
327 1 0.0751173 0.200215 0.0248156 0.0112339 -3.34917 0.0067226 -0.0164134 0.0676789
1846 1 0.074964 0.17504 0.0500167 0.0093399 -3.35215 0.0295966 0.0702706 0.00571373
1929 1 0.100038 0.200069 0.0499959 0.010395 -3.3553 -0.0113641 -0.0214311 -0.0738653
329 1 0.100108 0.200427 -0.00019349 0.0163837 -3.3424 -0.0402849 -0.0555189 0.00557448
246 1 0.0751695 0.175062 -9.29659e-05 0.0163734 -3.34402 -0.083057 0.0759679 -0.0255824
256 1 0.150079 0.175106 0.025004 0.0115915 -3.34945 -0.0464867 -0.0262934 0.00153143
331 1 0.124838 0.200157 0.0247615 0.0138105 -3.34541 0.015629 -0.0397053 0.0930673
1850 1 0.124778 0.174789 0.0500858 0.025714 -3.36091 0.0348736 0.037397 -0.0939465
1933 1 0.149746 0.199752 0.0498195 0.045947 -3.34733 0.0175856 0.0248486 0.051492
333 1 0.149757 0.200014 -6.89074e-05 0.022632 -3.34738 0.0217929 0.074207 -0.0604517
260 1 0.199939 0.175354 0.0248843 0.0248524 -3.35288 -0.0329855 -0.077676 0.0447867
335 1 0.174418 0.20049 0.0249385 0.0715228 -3.34518 0.128238 -0.071867 0.030274
1854 1 0.175139 0.174704 0.0498336 0.0482875 -3.35824 -0.021749 0.127019 0.0375388
1937 1 0.200068 0.199958 0.0496607 0.0251223 -3.35301 -0.0570673 -0.0209129 0.06942
337 1 0.199768 0.200237 0.000229499 0.0287577 -3.34729 0.0620152 -0.022662 -0.0859808
264 1 0.249944 0.17492 0.0251277 0.00867574 -3.35 0.0982569 0.0166663 -0.0564546
339 1 0.22495 0.199904 0.0250636 0.00755819 -3.33935 0.0672309 0.0553946 -0.025597
1858 1 0.225445 0.175 0.0498447 0.0243862 -3.34317 -0.125239 -0.015071 0.0947591
1941 1 0.250115 0.199795 0.0501749 0.0102159 -3.34451 0.0230157 0.0498926 -0.0837007