ITEM: TIMESTEP
7500
ITEM: NUMBER OF ATOMS
32000
ITEM: BOX BOUNDS pp pp pp
3.0340607748496762e+00 7.7965939225145178e+01
-1.1463169256356238e+00 8.2146316925629890e+01
-1.1476714398366070e+00 8.2147671439832365e+01
ITEM: ATOMS id type xs ys zs c_csym c_peratom fx fy fz
8 1 0.0501521 0.0251132 0.0252025 0.0250759 -3.34269 -0.0151016 0.0489413 -0.0718844
2 1 0.0252476 0.0248298 0.000197678 0.0237191 -3.33078 -0.0997203 0.0239932 -0.0457519
4 1 0.000111185 0.0246964 0.0245934 0.0587918 -3.34443 -0.0987187 0.123213 0.109616
3 1 0.0250869 -0.000269744 0.0252359 0.0438827 -3.33231 -0.0490321 0.0441332 -0.123581
1602 1 0.0250018 0.0251249 0.0498841 0.0077836 -3.34436 -0.0277013 -0.0231498 0.0409711
5 1 0.0499757 0.000155004 0.000119864 0.0206179 -3.34329 0.0589697 -0.0229762 -0.0732544
12 1 0.100206 0.0253063 0.0250635 0.0241087 -3.345 -0.0186488 -0.0695746 -0.0218998
7 1 0.0748957 0.000226711 0.0250769 0.03073 -3.33521 0.121722 -0.0580372 -0.105529
9 1 0.0997708 0.00038101 6.69245e-06 0.048849 -3.3451 0.0807472 -0.120238 0.0143648
1689 1 0.0998733 0.0499063 0.04969 0.0309083 -3.34478 0.0397649 0.0429048 0.124004
16 1 0.150264 0.02497 0.0250991 0.0108275 -3.33973 -0.0585351 0.023805 -0.043575
1610 1 0.125451 0.024922 0.0499656 0.0313295 -3.3347 -0.0909881 -0.0017187 -0.0343792
1613 1 0.150528 -9.55095e-05 0.0500755 0.043859 -3.32735 -0.135603 0.0147168 -0.0476065
20 1 0.200328 0.0250584 0.0250142 0.0147704 -3.34223 -0.0202504 -0.0240536 0.0268588
15 1 0.174918 0.00010866 0.0252549 0.0333876 -3.32898 0.0708809 -0.000110807 -0.078694
1617 1 0.200173 0.00018378 0.0497413 0.017469 -3.34552 -0.0700583 0.0264895 0.0584169
17 1 0.200064 -0.00024501 0.00026534 0.0394408 -3.3454 -0.0731974 0.0472783 -0.0931203
24 1 0.249728 0.0249575 0.0252726 0.0193749 -3.3347 0.0192146 -0.0386005 -0.0471957
1622 1 0.27448 0.0256271 0.0502942 0.0739824 -3.34237 0.169396 -0.160399 -0.054078
19 1 0.225161 -0.000272695 0.024785 0.0252017 -3.33111 0.00242081 0.11034 0.0507233
23 1 0.275129 3.13073e-05 0.0253829 0.03045 -3.34328 -0.0299559 0.076132 -0.0517226
1618 1 0.225029 0.025327 0.0501117 0.010954 -3.32953 -0.0158053 -0.0584606 -0.0295181
28 1 0.300222 0.0254388 0.0252044 0.041117 -3.35175 -0.0324523 -0.110941 0.0388928
26 1 0.324985 0.0247945 -0.000138866 0.0348247 -3.34569 0.0703517 0.058091 0.0776047
32 1 0.349828 0.0252881 0.0251157 0.0366143 -3.34388 -0.00518304 -0.118632 -0.0962828
31 1 0.375297 -0.00052286 0.0245344 0.0693033 -3.34094 -0.111692 0.116729 0.101567
30 1 0.374687 0.0249327 0.000136278 0.0275805 -3.35426 0.0541831 0.00975284 -0.0492794
36 1 0.399927 0.0250581 0.0248173 0.0324361 -3.3436 0.0417711 -0.0862833 0.063711
115 1 0.424976 0.0498191 0.0254242 0.0197036 -3.33349 -0.00677941 -0.0395184 -0.0203467
35 1 0.425368 -0.000655766 0.0252228 0.0587998 -3.34568 -0.0321421 0.180155 -0.0136563
33 1 0.400278 -0.000509489 0.000148293 0.0441577 -3.33781 -0.0022426 0.151911 -0.0635356
34 1 0.42468 0.0249464 0.000147654 0.0285224 -3.34463 0.0996095 -0.0637122 -0.00325769
40 1 0.450332 0.0248397 0.0251711 0.0140074 -3.34906 -0.108913 -0.0351901 -0.00533603
119 1 0.475386 0.0495943 0.0249111 0.0406663 -3.33619 -0.032239 0.132326 0.0172397
44 1 0.500089 0.025024 0.0252501 0.00912324 -3.33651 0.075945 -0.0199989 0.0213813
41 1 0.500224 3.71859e-05 0.000449254 0.0231037 -3.33413 -0.00398422 -0.00729118 -0.0868673
48 1 0.55006 0.0251671 0.0256122 0.057442 -3.33249 -0.0336435 -0.026942 -0.155317
43 1 0.524901 -5.73843e-05 0.0250551 0.0119094 -3.33487 0.0030398 0.0525303 0.0738738
42 1 0.525194 0.0250959 0.000101573 0.0110823 -3.34098 0.0294252 -0.0403336 0.0214549
125 1 0.550159 0.0501374 -1.83269e-05 0.0190307 -3.33654 -0.0879069 -0.0235254 -0.0202727
52 1 0.599511 0.0252583 0.0250349 0.0459886 -3.33363 0.095506 -0.052362 0.0601339
129 1 0.600152 0.0498211 9.65417e-05 0.0155193 -3.33717 0.00119936 0.0660959 -0.011376
127 1 0.574837 0.0502652 0.0247315 0.0397769 -3.33213 0.0370717 -0.0112031 0.141017
46 1 0.574854 0.0249048 0.000284416 0.0255736 -3.3443 0.0164811 -0.0230623 -0.155093
56 1 0.650274 0.0250622 0.0249785 0.0233276 -3.33117 0.0236661 -0.0406289 -0.0511468
50 1 0.624878 0.025023 0.000382499 0.0243816 -3.34267 0.0418575 -0.0137424 -0.0664968
135 1 0.675175 0.0503157 0.0251538 0.0244542 -3.34525 0.0312625 -0.0434547 -0.0332989
60 1 0.699766 0.025079 0.0251055 0.0242183 -3.35008 -0.0154081 -0.0221036 -0.0625057
1737 1 0.700267 0.0500061 0.0501447 0.0176015 -3.34133 -0.0218559 0.024558 -0.0109946
137 1 0.699947 0.0501314 -0.000144003 0.0139612 -3.34658 0.020477 -0.00511172 0.0398289
139 1 0.724801 0.0498379 0.02485 0.0283306 -3.34047 0.0227158 0.0433527 0.0169911
64 1 0.750049 0.0249975 0.0248383 0.0108841 -3.3393 -0.0384735 0.00461952 -0.0063329
1662 1 0.775069 0.0250319 0.0496712 0.0176848 -3.33547 0.00433802 -0.0391545 0.0938417
59 1 0.725072 0.000352893 0.0250432 0.0278318 -3.33318 -0.0262271 -0.0643453 -0.0161779
1741 1 0.74988 0.0497068 0.0499181 0.0331135 -3.34391 0.0488682 0.104907 -0.0327453
62 1 0.775363 0.0249953 0.000186134 0.0249271 -3.34576 -0.0734457 -0.0217099 -0.108878
68 1 0.800146 0.0251828 0.0249937 0.0105411 -3.3275 0.076112 -0.0469112 -0.00636232
67 1 0.825305 0.000354853 0.0252173 0.0432226 -3.33902 -0.0872675 -0.0523462 -0.0486188
1666 1 0.825212 0.0249085 0.0496351 0.0300146 -3.34495 0.0308692 0.083271 0.0421947
1745 1 0.799863 0.0498188 0.0500023 0.0240192 -3.3375 0.0954745 0.0268553 0.00380391
65 1 0.800262 -5.51491e-06 6.67098e-05 0.0142997 -3.34035 -0.00498 0.0051155 -0.0650947
72 1 0.850356 0.0251842 0.0245713 0.0334747 -3.33302 -0.0766176 -0.0112522 0.0732583
151 1 0.875013 0.0501982 0.0248056 0.0202796 -3.32854 0.00598325 0.0179054 0.0897722
70 1 0.875091 0.0250479 7.26384e-05 0.010163 -3.33963 0.0361052 -0.0512194 -0.0346329
1670 1 0.874703 0.0249511 0.0496531 0.062618 -3.33076 0.128886 0.0128935 0.112303
1749 1 0.850569 0.0499535 0.0502047 0.0483679 -3.34729 -0.0741654 0.061006 -0.0531197
76 1 0.899929 0.0253483 0.0252343 0.0460158 -3.3426 0.028522 -0.105476 -0.0870232
1674 1 0.925428 0.0251859 0.0498141 0.0342714 -3.34807 -0.0657697 -0.0140966 0.0576608
74 1 0.924875 0.0253589 -0.000290294 0.0372751 -3.33458 0.0142957 -0.131841 0.10976
80 1 0.950244 0.0250014 0.0248321 0.0251282 -3.33406 -0.0651916 -0.00169066 0.0238496
1678 1 0.974912 0.0250644 0.0500899 0.0111416 -3.3483 0.0211097 0.0100948 -0.0645362
78 1 0.974849 0.0249298 -8.70725e-05 0.017927 -3.34181 0.0922799 0.0916574 -0.0252292
159 1 0.974515 0.0501292 0.0250238 0.0356413 -3.34715 0.194299 -0.0377311 -0.0593128
77 1 0.949697 0.000301814 -0.000164281 0.0264614 -3.34002 -0.0040171 -0.0779081 0.0594315
83 1 0.0247302 0.0500824 0.0250589 0.0255305 -3.34573 0.0675937 0.00484537 0.0059218
88 1 0.0501472 0.0750259 0.0249813 0.0098951 -3.33968 -0.049983 -0.0311298 -0.030281
1682 1 0.0253562 0.0751184 0.0500857 0.0256669 -3.33636 -0.110505 0.0311258 -0.0369927
1685 1 0.0497743 0.0500934 0.0501309 0.0136397 -3.33929 0.106203 -0.0676996 -0.072936
1681 1 -0.00022606 0.0502273 0.050054 0.0141185 -3.34672 0.0435405 -0.0523038 -0.0464601
82 1 0.0251998 0.0749823 -3.34792e-05 0.013915 -3.33959 -0.0319406 0.0135849 0.0308892
87 1 0.0752802 0.0501455 0.0250435 0.0218821 -3.3376 -0.105929 -0.087207 0.00201298
92 1 0.100208 0.0750533 0.0250336 0.0123802 -3.34449 0.0798938 0.0507047 -0.0230192
86 1 0.0752069 0.0746437 0.000219806 0.0395011 -3.33612 -0.0933991 0.113375 -0.0734294
1686 1 0.0748134 0.0748907 0.0499703 0.0152011 -3.33368 0.0335478 0.0247548 0.0215494
1693 1 0.149785 0.050253 0.0502132 0.0226953 -3.32829 0.0809195 0.00645716 -0.100556
91 1 0.125437 0.0500628 0.024951 0.0185281 -3.34429 -0.0601806 0.00681333 -0.0158414
96 1 0.150229 0.0752112 0.0248443 0.0180485 -3.34118 -0.0258707 -0.05118 0.0867651
1690 1 0.125022 0.0751429 0.0501297 0.0120719 -3.34001 -0.0591616 -0.0145018 -0.0389362
95 1 0.175272 0.0499794 0.0253678 0.0308689 -3.3423 -0.0993292 0.0474893 -0.0979689
100 1 0.199828 0.0751761 0.0250043 0.00963045 -3.34512 0.0437691 0.0030631 -0.000954629
175 1 0.174746 0.100136 0.0249805 0.0194871 -3.34217 0.037487 0.0800932 -0.0354576
1697 1 0.199853 0.0502776 0.0498236 0.0362875 -3.33659 0.0787696 -0.00636068 0.144432
1694 1 0.174922 0.075421 0.0503312 0.0381142 -3.33304 0.00554745 -0.10047 -0.0999317
1777 1 0.199805 0.100284 0.0497188 0.0312309 -3.33725 0.0723443 -0.014399 0.0813004
99 1 0.22523 0.0501263 0.0252011 0.0173765 -3.33885 -0.0701191 0.0444263 -0.0488828
103 1 0.274521 0.0500298 0.0252777 0.0313547 -3.33318 0.0368476 0.0499034 -0.0343784
104 1 0.249939 0.0753401 0.0249615 0.0166396 -3.3478 0.0217607 -0.0463123 0.0268348
1701 1 0.249701 0.0503773 0.0503068 0.0148331 -3.32757 0.00664279 0.0408155 0.00500615
1698 1 0.224633 0.0752577 0.0502165 0.0201387 -3.3512 0.0424975 0.0132858 0.00462718
1702 1 0.274789 0.0750448 0.0504884 0.0353959 -3.3348 0.00427462 0.0482256 -0.142857
107 1 0.325081 0.0503935 0.025147 0.0204632 -3.33083 -0.00990162 -0.0420314 -0.0449764
108 1 0.299903 0.0747031 0.0253511 0.0609038 -3.34679 -0.0662919 0.138163 -0.0574007
187 1 0.325012 0.099733 0.0252571 0.0463806 -3.33854 0.00474244 0.0839124 -0.0282396
106 1 0.324854 0.0757097 0.000202508 0.0738278 -3.34826 -0.0221904 -0.161722 -0.0199111
111 1 0.375131 0.0500315 0.0248261 0.021216 -3.3464 -0.0227093 0.047077 0.0440668
112 1 0.35018 0.0751807 0.0251 0.01048 -3.33644 -0.0263472 -0.0455144 0.000284207
191 1 0.374943 0.100176 0.0251551 0.0161416 -3.33316 0.146194 -0.0900639 0.032581
110 1 0.375186 0.0753333 0.000293854 0.0316197 -3.33853 -0.0869322 -0.114773 -0.0113137
116 1 0.400495 0.0748451 0.0251788 0.04297 -3.33739 -0.156976 0.05351 0.0571872
1714 1 0.424987 0.0748277 0.0502194 0.0157138 -3.33543 -0.0107576 0.0761363 -0.0167481
114 1 0.42523 0.0748475 0.00030359 0.0193733 -3.33333 0.049806 0.0298973 -0.0192091
113 1 0.400266 0.0500894 0.000180153 0.0129331 -3.32965 -0.0634798 -0.0353414 0.00624058
120 1 0.450046 0.0747289 0.0256032 0.0456314 -3.34121 0.0194335 0.0725729 -0.1257
1718 1 0.47524 0.0747278 0.050092 0.0334225 -3.33441 -0.0411961 0.10814 -0.0134207
118 1 0.474894 0.0751993 0.000129316 0.020055 -3.35725 -0.018288 -0.102925 0.0152417
123 1 0.5253 0.0500305 0.0250256 0.0164105 -3.34444 -0.0395501 0.0241893 0.0334318
124 1 0.499896 0.0751379 0.0248944 0.016617 -3.33722 -0.00711451 -0.0651834 0.0583141
128 1 0.550008 0.0751901 0.0245276 0.0455257 -3.34644 -0.0130931 0.0268587 0.113374
122 1 0.524547 0.0752878 0.000185306 0.0503664 -3.33177 0.117106 -0.0555143 -0.034683
132 1 0.600088 0.0752684 0.0250476 0.0184504 -3.34722 0.0420192 -0.0693858 -0.0604416
207 1 0.575073 0.100272 0.0250171 0.0168822 -3.34517 -0.0168082 -0.0723199 -0.068448
126 1 0.575229 0.0749075 -5.75572e-05 0.0163611 -3.3381 -0.0168583 0.11303 0.0011577
209 1 0.600283 0.100066 -0.000224328 0.0139759 -3.34655 -0.0163558 -0.00163366 0.0246006
131 1 0.625085 0.049919 0.0252476 0.0273229 -3.33657 -0.0262025 0.0797596 -0.101549
133 1 0.650291 0.0500392 0.000323008 0.0261968 -3.34084 -0.074269 -0.00688711 -0.0620614
136 1 0.649916 0.0751096 0.0250042 0.0147032 -3.34052 0.00820156 -0.0613842 -0.00374924
1813 1 0.650253 0.0999019 0.0499762 0.00919076 -3.33077 -0.0354468 0.0406285 -0.0344037
130 1 0.625334 0.0748665 -0.000195929 0.0233084 -3.33832 -0.134201 -0.00408927 0.0737002
215 1 0.674572 0.0999269 0.024859 0.029794 -3.33569 0.117251 0.0547991 0.0276111
140 1 0.700205 0.0753456 0.0252251 0.034227 -3.33786 -0.0307646 -0.0493885 -0.0943951
143 1 0.77526 0.0497605 0.0248157 0.0211275 -3.3351 -0.0601521 0.100525 0.0598152
1738 1 0.725206 0.0752571 0.0496915 0.0334123 -3.34536 0.0250044 -0.0366084 0.124524
144 1 0.7501 0.0749044 0.0250815 0.0112292 -3.33958 0.0295942 -0.0109716 0.040988
1742 1 0.775257 0.0747758 0.0501894 0.0146082 -3.33909 -0.041165 -0.00758756 -0.0354926
138 1 0.725266 0.0753535 0.000331032 0.0358582 -3.3403 -0.112219 -0.0989155 -0.0963002
219 1 0.72525 0.100282 0.0250757 0.0125631 -3.34412 0.00964082 -0.00269282 0.0186964
223 1 0.774905 0.100091 0.0256875 0.0501912 -3.33318 0.0123433 0.00303109 -0.196066
1821 1 0.750586 0.100199 0.0502556 0.0428894 -3.33388 -0.126687 -0.0558398 -0.00840974
147 1 0.825177 0.0504606 0.0249916 0.0405927 -3.34183 0.0283151 -0.144939 0.0483919
148 1 0.800072 0.0750506 0.0251253 0.0106661 -3.33054 0.0032681 -3.81797e-05 -0.00199935
227 1 0.824862 0.10005 0.0253445 0.0231904 -3.33614 0.0483689 -0.00762164 -0.0804762
1746 1 0.824859 0.0746645 0.0501255 0.0308428 -3.34612 0.0700218 0.0509865 0.0474982
152 1 0.849846 0.0750468 0.0251483 0.019822 -3.34113 0.0570547 0.0516843 -0.010104
231 1 0.875053 0.0999104 0.0251511 0.00948429 -3.34346 0.0286523 0.033228 -0.0619634
229 1 0.850033 0.100071 1.84905e-05 0.0115141 -3.34201 0.0505686 -0.0796434 0.00249401
150 1 0.875411 0.0750092 0.000263735 0.0383093 -3.33678 -0.134727 0.063328 -0.0947263
1750 1 0.875383 0.0752859 0.0501383 0.0296897 -3.3372 -0.0424137 -0.130381 -0.0528261
155 1 0.92516 0.0500306 0.0247309 0.0162324 -3.33462 0.0170437 0.00476695 0.0628
156 1 0.900234 0.0748665 0.0249232 0.0210829 -3.33255 -0.0304015 0.0474106 0.0687471
1754 1 0.925063 0.0749292 0.0499393 0.00921899 -3.34408 -0.0219787 0.054253 0.00139282
154 1 0.924902 0.0753284 -4.03728e-05 0.0336754 -3.33113 0.03521 -0.0885077 0.00728139
1757 1 0.949854 0.0502647 0.0499023 0.0210437 -3.32989 0.0499148 -0.0897267 0.0477639
84 1 0.999822 0.0753879 0.0252016 0.0337066 -3.34659 0.0178415 -0.0901401 -0.0462754
160 1 0.950114 0.0751719 0.0249827 0.0150991 -3.34669 -0.045192 0.0443648 -0.00585609
1837 1 0.950095 0.10017 0.0501828 0.0239124 -3.33596 -0.0292107 -0.0945774 -0.104222
157 1 0.949653 0.0501287 -0.000231597 0.0261622 -3.33463 0.127632 0.0235288 0.0308559
163 1 0.025149 0.0999595 0.0249867 0.0103579 -3.34933 0.0121729 0.0191371 0.0123518
162 1 0.0248397 0.125129 9.467e-05 0.0218061 -3.3385 0.0682873 -0.0273555 -0.0596656
168 1 0.0502546 0.12498 0.0249265 0.0242288 -3.336 -0.0553382 -0.067506 0.0672717
167 1 0.0750805 0.0997358 0.0245654 0.0440478 -3.34162 -0.0083277 0.0411091 0.105029
172 1 0.099885 0.124881 0.0247537 0.0249762 -3.33348 -0.0128512 -0.0206775 0.0701135
171 1 0.125409 0.100356 0.0249522 0.0461268 -3.34201 -0.142804 -0.136968 -0.00778611
1773 1 0.149849 0.0999903 0.050251 0.0168607 -3.3307 -0.00186314 0.0445368 -0.0323914
176 1 0.149677 0.125202 0.0251496 0.0101644 -3.33694 0.0998631 0.0285392 -0.00806732
253 1 0.149978 0.149951 -3.73988e-05 0.0202178 -3.34255 -0.0698398 0.072541 -0.00895552
170 1 0.124534 0.125255 8.27831e-05 0.0401387 -3.33834 0.134376 -0.0193928 -0.113491
1770 1 0.124608 0.12491 0.0500999 0.0256343 -3.33645 0.0794702 0.023633 -0.0245999
1853 1 0.149529 0.150266 0.0501573 0.019481 -3.34059 0.0978961 -0.0617276 -0.0129634
180 1 0.200083 0.125621 0.0247731 0.0592287 -3.34719 -0.0873463 -0.117485 0.0881203
1774 1 0.174947 0.124864 0.0499594 0.0358939 -3.34758 -0.00920501 0.135367 -0.0354483
1857 1 0.199634 0.150445 0.0501583 0.0277066 -3.33645 0.0349877 -0.0841725 -0.037882
179 1 0.225144 0.100237 0.0250952 0.0237787 -3.33794 -0.0724198 -0.0462988 0.00105732
1781 1 0.250129 0.100168 0.0502009 0.0170852 -3.33928 -0.0633427 0.00545338 -0.0673534
183 1 0.274819 0.100185 0.0248985 0.0194331 -3.3446 0.0278126 -0.0581167 0.0301881
184 1 0.249689 0.124945 0.0252163 0.0246074 -3.34358 0.0403242 0.0636869 -0.0394549
1782 1 0.275108 0.125097 0.0501361 0.0153032 -3.34122 0.039273 0.000598631 -0.116324
182 1 0.274496 0.125258 -0.000122496 0.0325237 -3.33788 0.061881 -0.0482524 0.0220734
1778 1 0.224609 0.125445 0.0503053 0.054117 -3.33923 0.0292347 -0.102632 -0.0666507
1785 1 0.299862 0.0999389 0.0499446 0.0231547 -3.33702 -0.0235779 0.0190888 -0.0195395
188 1 0.29993 0.124816 0.024656 0.0334132 -3.33829 -0.0284409 0.068337 0.0587411
186 1 0.325337 0.125138 8.16951e-05 0.0229631 -3.33372 -0.00227905 -0.00475922 -0.00295156
185 1 0.300094 0.100574 0.00010981 0.0547768 -3.33539 -0.101561 -0.109997 0.00210607
1789 1 0.350273 0.100255 0.0501829 0.0221231 -3.33244 -0.0284774 -0.0162785 -0.0325814
192 1 0.350287 0.124749 0.0252669 0.0424423 -3.34632 -0.11203 0.166513 -0.052464
1790 1 0.374887 0.125152 0.05014 0.0173556 -3.33102 0.0585525 0.0219666 0.0121637
190 1 0.37536 0.125077 0.000150603 0.0136088 -3.32945 -0.0681349 -0.0299937 0.0607531
271 1 0.375346 0.150098 0.0254909 0.0354489 -3.34218 -0.104143 -0.0604605 -0.110078
1793 1 0.399845 0.100152 0.0502734 0.0190984 -3.35544 0.0771699 -0.063283 -0.0370986
195 1 0.424916 0.0999798 0.0247873 0.0505436 -3.3465 0.0715541 0.00156879 0.200013
196 1 0.400262 0.124756 0.0254617 0.0435005 -3.3446 -0.0323544 0.0715826 -0.0732621
1873 1 0.400138 0.149988 0.0500827 0.00842342 -3.32431 -0.029303 -0.0354038 0.0255054
275 1 0.424998 0.14997 0.0252693 0.0124598 -3.34185 -6.98993e-05 0.01179 -0.0516071
1794 1 0.425127 0.125197 0.050528 0.033258 -3.33696 0.0244472 -0.0869186 -0.14775
194 1 0.424963 0.12507 -0.00015351 0.0284863 -3.32716 -0.0454304 -0.0248689 0.128604
199 1 0.474944 0.100136 0.0252342 0.007338 -3.34151 -0.0412162 -0.0223714 -0.00812109
200 1 0.4499 0.125158 0.0250018 0.0110275 -3.34421 -0.0145978 -0.0462231 0.0808532
197 1 0.449834 0.100115 0.000348081 0.0208598 -3.33363 0.0519396 -0.0619352 -0.0408344
198 1 0.474815 0.125024 2.44591e-05 0.00416701 -3.33834 0.0232366 0.0106724 -0.00826626
203 1 0.524789 0.100049 0.0252863 0.0241314 -3.34251 0.0408619 0.0119926 -0.0733411
204 1 0.499716 0.125182 0.0251627 0.0166769 -3.35045 0.073841 -0.0203254 -0.0647665
208 1 0.549795 0.124817 0.0251298 0.0250868 -3.33799 0.0364841 0.0385177 -0.0505323
202 1 0.5252 0.124964 -0.000172776 0.0264834 -3.33672 -0.0871142 0.0119851 0.124583
201 1 0.499892 0.100128 5.20636e-05 0.00554634 -3.34183 -0.000134328 0.0330353 -0.000804243
212 1 0.600195 0.125241 0.0251409 0.0162093 -3.33665 0.0816804 -0.0458541 -0.0115967
206 1 0.575249 0.124979 0.000337086 0.0298868 -3.34611 -0.0442459 0.00996221 -0.118252
211 1 0.625047 0.100054 0.0248601 0.00821033 -3.33646 6.69649e-05 0.0115092 0.0474882
216 1 0.649843 0.125089 0.0247523 0.0195561 -3.32934 -0.00584915 -0.0137061 0.102471
210 1 0.625201 0.125065 -0.00015988 0.00794432 -3.34178 -0.0517653 -0.0102291 -0.0207631
1810 1 0.625342 0.125056 0.0501286 0.0163365 -3.34276 -0.0286168 -0.0275249 -0.0434068
213 1 0.649809 0.0999329 6.66498e-05 0.0173789 -3.32984 0.0395783 0.0243525 -0.0848041
220 1 0.700043 0.125179 0.0250037 0.012793 -3.34131 -0.0515505 -0.0647843 -0.0197121
217 1 0.699722 0.100409 0.000120274 0.0282957 -3.34382 0.0833073 -0.0443977 0.00245542
214 1 0.67456 0.125108 0.000124456 0.0319702 -3.3415 0.107387 -0.00459987 -0.0860559
1818 1 0.724903 0.125079 0.0499437 0.0153766 -3.33896 0.0759591 0.0272977 -0.00268844
224 1 0.750024 0.125455 0.0251743 0.0304469 -3.33282 -0.0186818 -0.126797 -0.023203
1901 1 0.750181 0.150147 0.0499652 0.0103227 -3.35803 -0.0774441 0.0669214 0.00249555
218 1 0.725046 0.124966 9.42484e-05 0.0138228 -3.33953 -0.0458054 -0.0224075 -0.067216
222 1 0.774801 0.125118 0.000102442 0.0158296 -3.34399 -0.00828413 -0.0386288 0.00815834
301 1 0.749593 0.149849 0.000124367 0.0323021 -3.32543 0.102991 0.0734411 -0.0288631
228 1 0.800034 0.125062 0.0253424 0.0193003 -3.34467 0.0361707 -0.00725624 -0.0879697
307 1 0.824871 0.149995 0.0250568 0.0143152 -3.33537 0.0121836 -0.0404918 0.0116469
225 1 0.799784 0.100454 0.000459453 0.0705428 -3.34373 0.0306916 -0.0765443 -0.0463818
305 1 0.800048 0.149873 0.000133297 0.0127726 -3.34295 0.0153824 0.000430649 -0.0352497
232 1 0.849813 0.124847 0.0248466 0.0153951 -3.34317 0.017383 0.0284301 0.103054
311 1 0.875055 0.149526 0.024967 0.0443655 -3.34038 0.00682763 0.0496799 0.0716232
1909 1 0.850103 0.150079 0.04998 0.0194962 -3.33866 -0.00494401 -0.11138 0.026109
309 1 0.849806 0.149888 0.000304104 0.0231247 -3.33092 0.0440207 0.0512395 -0.0860767
235 1 0.924537 0.100085 0.0249778 0.045516 -3.34014 0.13278 -0.0665425 0.0170189
236 1 0.900229 0.12486 0.025016 0.0157363 -3.34486 -0.12176 0.0571789 -0.024708
1913 1 0.900026 0.14987 0.0503486 0.0211665 -3.34771 -0.0194303 -0.0334752 -0.094494
233 1 0.899764 0.100012 -0.000259853 0.0329763 -3.33577 -0.00481652 0.0681089 0.0318172
234 1 0.925111 0.124759 -0.000211724 0.0165701 -3.34099 -0.028663 0.0385734 0.0521345
237 1 0.950112 0.0997033 0.000211853 0.0286102 -3.32961 -0.0243887 0.0346529 -0.0776386
164 1 0.999931 0.124842 0.0247862 0.012672 -3.33561 -0.0203518 0.0524697 0.046539
239 1 0.97502 0.100373 0.0248148 0.0445342 -3.32585 0.0473248 -0.18646 0.0608224
240 1 0.950142 0.12469 0.0248977 0.0263757 -3.33407 -0.141293 0.101684 0.00654006
238 1 0.974808 0.124497 -0.000137726 0.038995 -3.33298 0.0837432 0.110617 -0.0470003
243 1 0.0252599 0.149896 0.0248552 0.0243314 -3.33079 -0.112403 0.0851973 0.0136311
248 1 0.0499675 0.17523 0.025255 0.0199632 -3.33838 -0.0298576 -0.0718654 -0.0766979
244 1 -0.000209033 0.175113 0.0249569 0.0131035 -3.35035 0.0200724 -0.0925359 0.00472919
245 1 0.050223 0.149851 0.000216336 0.0302675 -3.33823 -0.059399 0.0653483 -0.0842939
247 1 0.0752704 0.150039 0.0251887 0.0343001 -3.33254 -0.0943712 0.0104244 -0.0405823
252 1 0.0996968 0.175481 0.0248255 0.0440666 -3.32594 0.0466337 -0.153828 0.075884
327 1 0.0746985 0.199906 0.0249501 0.0256286 -3.33772 0.0090339 0.145368 0.0242205
1849 1 0.0998449 0.149952 0.0497877 0.014148 -3.3356 0.0798713 0.0720366 0.0426665
251 1 0.124883 0.150107 0.0250657 0.00986385 -3.34315 -0.0372563 0.0524378 -0.017168
256 1 0.149868 0.175305 0.0251847 0.0103898 -3.33004 0.00971175 0.0033693 -0.0326981
1933 1 0.150125 0.200308 0.0498578 0.00890682 -3.34745 -0.0475401 -0.0284275 0.0379651
255 1 0.174537 0.150447 0.0251948 0.0297634 -3.34605 0.0711185 -0.0898482 -0.0405003
260 1 0.200023 0.175275 0.0249225 0.0165705 -3.34048 -0.028789 -0.112569 0.00864229
254 1 0.174673 0.175321 0.000101003 0.0271799 -3.33867 0.0655682 -0.0954019 -0.00271414
1854 1 0.174973 0.175003 0.0499391 0.0210223 -3.33556 -0.0823301 0.0789051 0.06051
259 1 0.225141 0.150067 0.025401 0.0390445 -3.33821 -0.0503996 0.077862 -0.119235
263 1 0.274918 0.149989 0.0248661 0.00707947 -3.34746 0.0226061 -0.0175955 0.017092
1861 1 0.250004 0.150115 0.049976 0.0105235 -3.32952 0.0258906 -0.0488203 0.00884043
264 1 0.250156 0.17538 0.0251342 0.0298455 -3.33159 -0.0956251 -0.108845 -0.039126
261 1 0.249884 0.150194 0.0002608 0.0153093 -3.34204 -0.0500091 -0.0170097 -0.0482521
1858 1 0.225117 0.175055 0.0501231 0.0108435 -3.34426 -0.0642231 0.00828988 -0.0103531
1862 1 0.27486 0.174806 0.0499784 0.0120671 -3.33148 0.0875874 0.0425792 -0.0202149
267 1 0.324782 0.14982 0.0243674 0.0562498 -3.35401 0.0649074 0.0429516 0.143984
268 1 0.299843 0.174973 0.0246303 0.0128962 -3.3412 0.0572101 -0.0507695 0.0820939
266 1 0.324942 0.174947 -0.000161337 0.0046581 -3.33947 0.0277744 -0.0209275 0.0129979
265 1 0.299733 0.149956 -0.000501072 0.0333675 -3.34399 -0.022865 0.0241376 0.077069
269 1 0.350503 0.150079 -7.83684e-05 0.0212978 -3.34501 -0.0407936 0.0132556 0.0861469
272 1 0.349997 0.175031 0.0248523 0.0115841 -3.35036 -0.000630566 -0.038747 0.0222525
351 1 0.375191 0.199849 0.0250838 0.0204293 -3.34703 -0.0835502 0.109715 -0.0388976
1869 1 0.349967 0.150396 0.0499226 0.0367266 -3.34697 -0.0650723 -0.131696 -0.0596237
273 1 0.39975 0.14998 0.000335756 0.0243112 -3.33439 0.119682 0.0335757 0.00264042
276 1 0.400039 0.175137 0.0249828 0.0137207 -3.32943 0.0574785 -9.71644e-05 0.0347079
355 1 0.424866 0.200253 0.0253041 0.0243241 -3.35032 0.0207613 -0.0462174 -0.102352
1874 1 0.424864 0.174849 0.0499945 0.0211998 -3.33848 0.0250876 0.0990044 -0.0317387
353 1 0.399851 0.2002 -0.000180531 0.0251102 -3.33647 0.0905741 0.00427143 0.0894433
274 1 0.42493 0.175108 0.000317182 0.0155466 -3.3463 0.0164961 0.0236543 -0.0736753
279 1 0.474782 0.150082 0.0247268 0.0255185 -3.34576 0.0297573 -0.0286273 0.0858636
1877 1 0.449985 0.150306 0.0502085 0.0272402 -3.33173 0.0333679 -0.0794609 -0.101889
280 1 0.450082 0.175158 0.0249554 0.0170783 -3.33723 -0.0320822 -0.0347748 0.0121991
278 1 0.475279 0.174857 3.48198e-05 0.0237445 -3.33898 -0.130954 0.0336889 -0.0519447
281 1 0.499996 0.150032 -2.52461e-06 0.0070287 -3.33388 0.0123924 -0.04811 0.00721156
284 1 0.499799 0.175246 0.0249252 0.0338685 -3.33504 0.0747814 -0.0208001 0.0218165
357 1 0.45039 0.200079 0.000370878 0.0410289 -3.34165 -0.148268 -0.120426 -0.121057
283 1 0.525015 0.150167 0.0249158 0.0129673 -3.34524 -0.00690632 -0.046345 0.0280171
1885 1 0.549909 0.149987 0.0499178 0.0113854 -3.34562 0.0237622 0.0216371 0.00192645
288 1 0.550355 0.175129 0.0250604 0.0187217 -3.33607 -0.0459027 -0.0541099 0.0437769
363 1 0.525353 0.200179 0.025188 0.0260443 -3.3434 -0.095754 -0.0538343 -0.103803
282 1 0.525117 0.174757 0.000314836 0.0223847 -3.341 0.00904959 0.06429 -0.0967052
287 1 0.575124 0.149763 0.0249847 0.0204708 -3.34072 -0.0465281 0.0723343 0.0630281
1886 1 0.574936 0.174836 0.0503074 0.0188154 -3.34414 0.0539573 0.0344815 -0.0827413
292 1 0.60015 0.174769 0.0252658 0.0143817 -3.33319 -0.0392358 0.0200302 0.00254694
289 1 0.600206 0.150004 0.000195905 0.00892741 -3.34012 -0.0333316 -0.0139627 -0.0473592
286 1 0.575234 0.175238 0.0004658 0.0382248 -3.33453 -0.0218421 -0.108168 -0.108744
291 1 0.625616 0.150269 0.0250698 0.0569902 -3.34162 -0.109957 -0.0850338 0.0246726
296 1 0.650188 0.175149 0.0253089 0.0334678 -3.34007 -0.0128455 -0.0051835 -0.0535355
1973 1 0.650366 0.200016 0.0498095 0.0227124 -3.34373 -0.0368258 -0.0449889 0.0437103
293 1 0.650016 0.150169 -0.000404393 0.0340705 -3.33244 0.028301 -0.0132025 0.0502631
295 1 0.674782 0.14984 0.024994 0.0194156 -3.3381 -0.0287436 0.0466803 0.0161672
300 1 0.699724 0.174959 0.0247984 0.0223505 -3.32782 0.0853986 -0.00754538 0.0643982
375 1 0.675534 0.200092 0.0249593 0.0433523 -3.33613 -0.0716372 0.0650572 0.00707444
297 1 0.699755 0.150088 8.25847e-05 0.0180518 -3.33815 0.00511785 -0.074149 -0.0712688
294 1 0.674829 0.174979 0.000291586 0.0364961 -3.33698 -0.0210155 0.0262224 -0.136253
299 1 0.72489 0.150099 0.024492 0.0451914 -3.33317 0.0271925 0.0607816 0.21537
303 1 0.77509 0.149993 0.0249878 0.0129774 -3.34095 -0.0262929 0.0853459 0.0260545
304 1 0.74996 0.175506 0.0249254 0.0401804 -3.34767 -0.0335354 -0.151057 0.088444
298 1 0.725011 0.175026 2.61828e-05 0.0137289 -3.33505 0.00144481 0.0313205 0.00393256
1902 1 0.775157 0.175453 0.0502082 0.0262657 -3.34314 -0.0515449 -0.0848909 -0.0512523
1905 1 0.79999 0.15037 0.0500592 0.0191264 -3.33877 -0.0137886 -0.0840517 0.00054971
308 1 0.799943 0.175022 0.0249274 0.0174196 -3.33422 0.035514 -0.018253 0.0792783
1985 1 0.80022 0.200074 0.0501365 0.0198392 -3.34971 0.00450368 -0.0360181 0.0200989
306 1 0.825071 0.175093 0.000166268 0.00888869 -3.34153 -0.00452857 0.00614735 0.00346944
312 1 0.850037 0.174946 0.0251182 0.0138775 -3.33626 0.063318 0.00521385 -0.00904689
315 1 0.925085 0.150031 0.0251271 0.0140567 -3.34755 -0.0174051 -0.0707052 -0.0238875
316 1 0.899516 0.1748 0.0255664 0.0708989 -3.34571 0.115325 0.0256941 -0.0278885
314 1 0.925173 0.174852 0.000640648 0.0587945 -3.3407 -0.0527916 -0.0265735 -0.126653
1917 1 0.949782 0.14985 0.0502059 0.0167407 -3.33077 0.0696842 -0.0517684 -0.066894
319 1 0.974569 0.150023 0.0247971 0.0350347 -3.34215 0.0803749 -0.055157 0.0639236
320 1 0.950075 0.174729 0.0252347 0.0177162 -3.33012 0.000486378 0.096685 -0.045134
1918 1 0.974717 0.174767 0.0500971 0.0148032 -3.33637 0.0843561 0.0314506 -0.0289743
399 1 0.974988 0.199845 0.0252506 0.0173708 -3.34037 -0.0638569 0.00335498 -0.0978705
241 1 0.999723 0.149781 0.000301486 0.0475411 -3.3423 0.00947873 0.0642825 -0.063224
317 1 0.950061 0.149622 -0.000369667 0.0390906 -3.33453 -0.0398923 0.0589149 0.0907614
325 1 0.0496499 0.200473 0.000177443 0.0382251 -3.34006 0.106672 -0.128939 -0.0383746
323 1 0.0248224 0.20003 0.0249543 0.00659786 -3.33099 0.00335588 -0.00444671 0.0295131
328 1 0.0496867 0.225226 0.0250847 0.0183563 -3.34463 0.0777086 -0.0290704 -0.0100874
322 1 0.0249951 0.225231 -8.41624e-05 0.0157962 -3.33668 -0.0543986 0.0084079 0.0365466
1922 1 0.0248348 0.224958 0.0498176 0.014335 -3.33846 -0.003999 0.0905936 0.0232938
332 1 0.0998617 0.225211 0.024687 0.0173069 -3.33974 0.0607316 -0.0481532 0.129644
407 1 0.0752498 0.249862 0.0250633 0.0465903 -3.33254 -0.088346 0.113966 -0.0228916
1926 1 0.0747162 0.225298 0.0502469 0.0256411 -3.34125 0.0232222 -0.0816705 -0.123253
409 1 0.0998736 0.250475 -0.000236643 0.0407642 -3.3441 0.0534586 -0.0467469 0.0268937
331 1 0.124713 0.200168 0.0249567 0.0132604 -3.3318 0.0930509 0.0678148 0.0394346
336 1 0.150049 0.225252 0.0246479 0.0186681 -3.34549 -0.0497524 -0.0351187 0.0476022
1930 1 0.125024 0.225229 0.0496345 0.0190547 -3.34702 -0.116707 -0.0283498 0.0446728
2013 1 0.149696 0.250072 0.0494983 0.029994 -3.34185 0.128328 0.0413247 0.0768664
330 1 0.125126 0.225262 -4.38456e-05 0.0103691 -3.34595 -0.0366119 0.0119536 0.00654751
335 1 0.17517 0.200285 0.0251292 0.019568 -3.33252 -0.0682002 -0.0597023 -0.0955622
1937 1 0.199923 0.20001 0.0498182 0.0136379 -3.32908 0.0366803 -0.0164803 0.104606
340 1 0.199995 0.225012 0.0247863 0.0102964 -3.33299 0.0600349 0.0456404 0.0678621
415 1 0.174933 0.249884 0.0248657 0.0194883 -3.34276 0.0761628 0.0930177 0.0761209
1934 1 0.175384 0.224877 0.0498604 0.0410419 -3.33192 -0.131609 0.123216 -0.018562
339 1 0.224751 0.199973 0.0252277 0.0219422 -3.33981 0.0867038 0.066725 -0.0597136
343 1 0.275121 0.199603 0.0249433 0.0395504 -3.33562 0.000759555 0.183919 0.0497421
344 1 0.250132 0.224966 0.0251819 0.0162582 -3.34854 -0.0249366 -0.0257042 -0.0710653
419 1 0.225072 0.249925 0.0249616 0.00587502 -3.34486 -0.00103358 0.00797392 0.0386578
1942 1 0.275039 0.224975 0.0499855 0.0157824 -3.34038 0.0627274 -0.0388389 -0.0188638
1938 1 0.225061 0.224821 0.0500885 0.0113669 -3.34088 -0.0326583 0.0400041 -0.0433875
347 1 0.325078 0.200024 0.0248092 0.00840101 -3.35033 0.00235119 0.0181402 0.0554463
348 1 0.300034 0.224888 0.0247497 0.0104906 -3.34255 -0.0395027 0.0122479 0.0965175
346 1 0.324884 0.225236 7.11954e-05 0.0230948 -3.33938 0.0665173 -0.0858291 -0.0140748
1945 1 0.299998 0.199949 0.050155 0.0225323 -3.34574 -0.00445035 -0.0217514 -0.114278
1946 1 0.325119 0.22506 0.0498032 0.0181094 -3.3394 -0.0104796 -0.0492817 -0.0168979