ITEM: TIMESTEP
0
ITEM: NUMBER OF ATOMS
1665
ITEM: BOX BOUNDS pp pp ff
-1.2120000000000001e+01 1.2120000000000001e+01
-1.2120000000000001e+01 1.2120000000000001e+01
-2.0199999999999999e+01 2.0199999999999999e+01
ITEM: ATOMS id type xs ys zs
1 5 0 0 0.1
2 5 0.0833333 0.0833333 0.1
3 5 0.0833333 0 0.15
4 5 0 0.0833333 0.15
5 5 0.166667 0 0.1
6 5 0.25 0.0833333 0.1
7 5 0.25 0 0.15
8 5 0.166667 0.0833333 0.15
25 5 0 0.166667 0.1
26 5 0.0833333 0.25 0.1
27 5 0.0833333 0.166667 0.15
28 5 0 0.25 0.15
29 5 0.166667 0.166667 0.1
30 5 0.25 0.25 0.1
31 5 0.25 0.166667 0.15
32 5 0.166667 0.25 0.15
49 5 0 0.333333 0.1
50 5 0.0833333 0.416667 0.1
51 5 0.0833333 0.333333 0.15
52 5 0 0.416667 0.15
53 5 0.166667 0.333333 0.1
54 5 0.25 0.416667 0.1
55 5 0.25 0.333333 0.15
56 5 0.166667 0.416667 0.15
73 5 0 0 0.2
74 5 0.0833333 0.0833333 0.2
75 5 0.166667 0 0.2
76 5 0.25 0.0833333 0.2
85 5 0 0.166667 0.2
86 5 0.0833333 0.25 0.2
87 5 0.166667 0.166667 0.2
88 5 0.25 0.25 0.2
97 5 0 0.333333 0.2
98 5 0.0833333 0.416667 0.2
99 5 0.166667 0.333333 0.2
100 5 0.25 0.416667 0.2
1412 2 0.22592 0.377559 0.23989
713 2 0.111647 0.200014 0.248552
9 5 0.333333 0 0.1
10 5 0.416667 0.0833333 0.1
11 5 0.416667 0 0.15
12 5 0.333333 0.0833333 0.15
13 5 0.5 0 0.1
14 5 0.583333 0.0833333 0.1
15 5 0.583333 0 0.15
16 5 0.5 0.0833333 0.15
17 5 0.666667 0 0.1
20 5 0.666667 0.0833333 0.15
33 5 0.333333 0.166667 0.1
34 5 0.416667 0.25 0.1
35 5 0.416667 0.166667 0.15
36 5 0.333333 0.25 0.15
37 5 0.5 0.166667 0.1
38 5 0.583333 0.25 0.1
39 5 0.583333 0.166667 0.15
40 5 0.5 0.25 0.15
41 5 0.666667 0.166667 0.1
44 5 0.666667 0.25 0.15
57 5 0.333333 0.333333 0.1
58 5 0.416667 0.416667 0.1
59 5 0.416667 0.333333 0.15
60 5 0.333333 0.416667 0.15
61 5 0.5 0.333333 0.1
62 5 0.583333 0.416667 0.1
63 5 0.583333 0.333333 0.15
64 5 0.5 0.416667 0.15
65 5 0.666667 0.333333 0.1
68 5 0.666667 0.416667 0.15
77 5 0.333333 0 0.2
78 5 0.416667 0.0833333 0.2
79 5 0.5 0 0.2
80 5 0.583333 0.0833333 0.2
81 5 0.666667 0 0.2
89 5 0.333333 0.166667 0.2
90 5 0.416667 0.25 0.2
91 5 0.5 0.166667 0.2
92 5 0.583333 0.25 0.2
93 5 0.666667 0.166667 0.2
101 5 0.333333 0.333333 0.2
102 5 0.416667 0.416667 0.2
103 5 0.5 0.333333 0.2
104 5 0.583333 0.416667 0.2
105 5 0.666667 0.333333 0.2
461 2 0.401763 0.186108 0.246585
18 5 0.75 0.0833333 0.1
19 5 0.75 0 0.15
21 5 0.833333 0 0.1
22 5 0.916667 0.0833333 0.1
23 5 0.916667 0 0.15
24 5 0.833333 0.0833333 0.15
42 5 0.75 0.25 0.1
43 5 0.75 0.166667 0.15
45 5 0.833333 0.166667 0.1
46 5 0.916667 0.25 0.1
47 5 0.916667 0.166667 0.15
48 5 0.833333 0.25 0.15
66 5 0.75 0.416667 0.1
67 5 0.75 0.333333 0.15
69 5 0.833333 0.333333 0.1
70 5 0.916667 0.416667 0.1
71 5 0.916667 0.333333 0.15
72 5 0.833333 0.416667 0.15
82 5 0.75 0.0833333 0.2
83 5 0.833333 0 0.2
84 5 0.916667 0.0833333 0.2
94 5 0.75 0.25 0.2
95 5 0.833333 0.166667 0.2
96 5 0.916667 0.25 0.2
106 5 0.75 0.416667 0.2
107 5 0.833333 0.333333 0.2
108 5 0.916667 0.416667 0.2
1821 2 0.999644 0.0732976 0.241627
714 2 0.0542749 0.189276 0.261884
438 2 0.284312 0.194025 0.262852
1616 2 0.0667462 0.258888 0.325706
498 2 0.173076 0.161512 0.341429
1413 2 0.245774 0.371545 0.275235
436 1 0.251 0.173891 0.25886
538 1 0.277117 0.404146 0.392136
1558 1 0.173293 0.255505 0.252069
593 2 0.317858 0.311685 0.401311
595 1 0.120376 0.407102 0.270097
596 2 0.0960088 0.377865 0.276412
597 2 0.152993 0.388753 0.262536
1768 1 0.158348 0.315892 0.476804
1560 2 0.182552 0.29387 0.252845
670 1 0.136321 0.294757 0.31824
671 2 0.14841 0.327967 0.328809
672 2 0.149959 0.265773 0.332095
1567 1 0.27614 0.212181 0.370101
877 1 0.138459 0.0920198 0.360543
807 2 0.179914 0.4634 0.446888
805 1 0.212467 0.462002 0.433503
878 2 0.129506 0.0587691 0.348946
726 2 0.174696 0.362462 0.393204
1562 2 0.239512 0.0713645 0.295299
733 1 0.171344 0.400756 0.337116
734 2 0.208659 0.401487 0.329377
735 2 0.149657 0.408954 0.317937
1493 2 0.0819288 0.470383 0.261847
1569 2 0.261235 0.199821 0.39075
1411 1 0.228382 0.351564 0.257664
540 2 0.250311 0.422211 0.405744
1568 2 0.246134 0.209049 0.354813
748 1 0.243477 0.170301 0.42944
750 2 0.233746 0.13393 0.422295
1770 2 0.122578 0.323466 0.485753
1769 2 0.160238 0.337798 0.457123
437 2 0.224277 0.201597 0.253575
1559 2 0.159623 0.247395 0.273758
1563 2 0.241818 0.100464 0.262171
497 2 0.169449 0.211415 0.363856
668 2 0.174294 0.204439 0.426552
879 2 0.16362 0.0806036 0.37747
496 1 0.178353 0.200644 0.341696
944 2 0.0906163 0.155419 0.471623
667 1 0.146698 0.225477 0.415244
539 2 0.267774 0.414884 0.370036
1561 1 0.236958 0.0648491 0.271981
2401 4 0.217066 0.0363728 0.409463
650 2 0.0728385 0.15643 0.306198
669 2 0.16277 0.26129 0.412664
454 1 0.33067 0.265416 0.263704
455 2 0.311767 0.299799 0.261036
749 2 0.273382 0.1648 0.444556
453 2 0.318821 0.193033 0.333938
674 2 0.300213 0.0519025 0.335207
2397 4 0.284717 0.41378 0.313778
2025 2 0.299737 0.0519638 0.41831
675 2 0.249409 0.0498956 0.356969
673 1 0.263578 0.0662786 0.337159
724 1 0.158553 0.334586 0.406908
1551 2 0.167289 0.0759132 0.276252
1849 1 0.093882 0.469303 0.474172
712 1 0.0873484 0.170877 0.255124
1615 1 0.0321902 0.25194 0.336388
649 1 0.0524555 0.13518 0.321985
2383 3 0.036277 0.0380478 0.29867
725 2 0.12451 0.350363 0.414294
943 1 0.0715384 0.183215 0.459287
1549 1 0.127863 0.075947 0.277587
1550 2 0.116878 0.10852 0.265927
745 1 0.331862 0.174687 0.475329
945 2 0.0982229 0.196399 0.443716
1001 2 0.0690706 0.236235 0.489975
962 2 0.0211697 0.0446995 0.426901
606 2 0.275187 0.486587 0.279637
651 2 0.0755249 0.134323 0.341208
1617 2 0.038168 0.218804 0.348766
660 2 0.0419744 0.178107 0.413399
678 2 0.319483 0.0582199 0.275057
501 2 0.126864 0.0526387 0.422803
581 2 0.00343687 0.238807 0.295744
1644 2 0.280013 0.433737 0.485207
659 2 0.00394381 0.133152 0.400911
658 1 0.0152064 0.170318 0.396619
786 2 0.006157 0.316587 0.373233
729 2 0.0600805 0.410928 0.424623
1642 1 0.317461 0.443685 0.489778
728 2 0.0316333 0.3554 0.42631
727 1 0.0618288 0.375822 0.43542
747 2 0.301838 0.164019 0.489325
1850 2 0.0842681 0.473311 0.451318
2004 2 0.239014 0.00596935 0.463803
1012 1 0.0544653 0.478048 0.41439
499 1 0.0925985 0.0370134 0.42993
806 2 0.223992 0.499647 0.431663
1014 2 0.0165393 0.488576 0.412481
2141 2 0.105815 0.0796499 0.493854
1013 2 0.0727742 0.498236 0.397244
2140 1 0.127491 0.112105 0.49746
1851 2 0.0639217 0.485985 0.485921
888 2 0.0768489 0.401015 0.493602
840 2 0.187306 0.438034 0.49974
839 2 0.19065 0.375976 0.496029
474 2 0.418516 0.388291 0.257683
594 2 0.333689 0.252457 0.39416
627 2 0.33336 0.353815 0.337133
635 2 0.399593 0.470307 0.292415
2023 1 0.336058 0.0562255 0.42725
2026 1 0.444918 0.0262746 0.468963
826 1 0.372214 0.273083 0.498037
2395 4 0.566285 0.254334 0.484328
708 2 0.580032 0.119747 0.44317
592 1 0.348756 0.287099 0.401061
626 2 0.361348 0.316205 0.361891
462 2 0.461032 0.180135 0.257844
452 2 0.33525 0.215465 0.300383
451 1 0.338649 0.183617 0.314242
828 2 0.392848 0.298828 0.485018
792 2 0.575781 0.409296 0.381343
456 2 0.368279 0.273578 0.258395
524 2 0.664768 0.0438913 0.268268
1724 2 0.418824 0.375762 0.354482
676 1 0.350158 0.0536125 0.289718
2378 3 0.388812 0.107782 0.465976
706 1 0.552709 0.146354 0.437027
696 2 0.582797 0.0304771 0.467584
473 2 0.384565 0.359562 0.283991
555 2 0.475677 0.303467 0.268646
770 2 0.507287 0.400919 0.289131
448 1 0.37793 0.441476 0.413386
449 2 0.343711 0.430186 0.403694
450 2 0.405527 0.427877 0.398533
965 2 0.538232 0.313443 0.451729
523 1 0.62654 0.0509576 0.272424
525 2 0.622877 0.0480329 0.29595
998 2 0.631135 0.276303 0.439666
2380 3 0.410439 0.124296 0.312293
460 1 0.42647 0.161054 0.257339
472 1 0.413545 0.353368 0.268332
964 1 0.520745 0.334209 0.434523
478 1 0.61643 0.0330964 0.342572
966 2 0.486456 0.345881 0.44396
695 2 0.523515 0.0141946 0.460982
535 1 0.391553 0.0832263 0.366578
537 2 0.403624 0.0460295 0.36329
541 1 0.502466 0.104738 0.303971
542 2 0.527922 0.118534 0.320082
553 1 0.499719 0.276784 0.278493
1448 2 0.512282 0.371317 0.344133
842 2 0.663459 0.130758 0.281933
634 1 0.402345 0.470106 0.268779
607 1 0.452815 0.219898 0.330069
608 2 0.470002 0.231632 0.350205
609 2 0.416667 0.235738 0.330864
1447 1 0.543644 0.348116 0.34046
625 1 0.365195 0.330958 0.340035
837 2 0.408623 0.399021 0.446483
835 1 0.414388 0.37323 0.464088
688 1 0.443897 0.153427 0.425902
689 2 0.483051 0.154668 0.42889
690 2 0.438189 0.124684 0.410021
751 1 0.481647 0.249116 0.393284
752 2 0.457697 0.224536 0.405004
753 2 0.493721 0.274958 0.409669
1449 2 0.528306 0.312505 0.335974
766 1 0.58251 0.140058 0.350844
767 2 0.589444 0.158341 0.371429
768 2 0.59815 0.104093 0.35361
769 1 0.515691 0.438182 0.283124
554 2 0.476812 0.257169 0.293788
843 2 0.633382 0.157662 0.310533
999 2 0.594483 0.288818 0.410268
536 2 0.365849 0.0809917 0.384515
997 1 0.631563 0.292617 0.418091
853 1 0.652686 0.374925 0.339492
834 2 0.565888 0.317324 0.267152
854 2 0.613482 0.376681 0.336854
855 2 0.664199 0.346641 0.32447
833 2 0.560235 0.374876 0.253
832 1 0.587131 0.348217 0.259714
841 1 0.661932 0.16407 0.294623
794 2 0.63904 0.424495 0.262487
790 1 0.589142 0.411573 0.403597
1723 1 0.44558 0.402485 0.361305
707 2 0.559385 0.17709 0.451353
1725 2 0.43272 0.436522 0.352098
836 2 0.437422 0.392441 0.479499
771 2 0.481768 0.452488 0.274557
791 2 0.564005 0.389474 0.416169
543 2 0.520093 0.0726403 0.295104
1052 2 0.653774 0.205756 0.480054
636 2 0.368433 0.486111 0.261354
902 2 0.650294 0.0566336 0.490042
2028 2 0.441853 0.0060511 0.48923
848 2 0.547792 0.470121 0.321677
901 1 0.621602 0.0826774 0.485479
694 1 0.560754 0.00276827 0.457094
746 2 0.34123 0.211134 0.482509
1643 2 0.338739 0.413367 0.481563
677 2 0.358201 0.0149766 0.288889
2024 2 0.347303 0.0195374 0.432841
480 2 0.583694 0.0188757 0.352709
847 1 0.56221 0.483305 0.342267
2027 2 0.431094 0.00162992 0.452413
479 2 0.641644 0.00270636 0.342653
1459 1 0.42334 0.496172 0.331981
2186 2 0.635535 0.468763 0.486381
849 2 0.531185 0.499667 0.353151
2185 1 0.65964 0.446876 0.499788
1051 1 0.686208 0.185204 0.474522
2134 1 0.892033 0.172721 0.466288
585 2 0.9219 0.481789 0.260747
1969 1 0.739203 0.0217113 0.396768
557 2 0.797561 0.463351 0.287109
934 1 0.726108 0.0288547 0.479483
489 2 0.844888 0.00602213 0.300176
935 2 0.739271 0.00419098 0.496216
917 2 0.681469 0.1379 0.421165
916 1 0.676362 0.135122 0.39773
486 2 0.673232 0.313393 0.265998
484 1 0.694428 0.289276 0.27979
918 2 0.704314 0.109879 0.390609
485 2 0.676181 0.254368 0.278115
986 2 0.689038 0.254972 0.412001
580 1 0.993338 0.233209 0.273086
1004 2 0.833279 0.311712 0.446906
566 2 0.833393 0.226117 0.345285
1053 2 0.675989 0.147491 0.477952
1069 1 0.825518 0.389553 0.443141
1063 1 0.709731 0.378299 0.458435
1064 2 0.691752 0.406855 0.47074
1588 1 0.746252 0.0631611 0.271251
1071 2 0.786076 0.391076 0.442444
785 2 0.971699 0.294152 0.401439
2379 3 0.678884 0.386652 0.3947
795 2 0.668103 0.428857 0.295552
793 1 0.669549 0.442037 0.273234
716 2 0.901427 0.238219 0.389414
1589 2 0.771275 0.0348844 0.278186
1070 2 0.835924 0.419893 0.45696
584 2 0.984026 0.479682 0.257121
2045 2 0.944259 0.106283 0.490356
804 2 0.759109 0.0884905 0.453658
508 1 0.987618 0.349235 0.272738
704 2 0.745326 0.298519 0.389844
862 1 0.73556 0.466148 0.389932
939 2 0.886307 0.153967 0.336644
2377 3 0.78086 0.208132 0.467108
926 2 0.948374 0.0650703 0.337803
1820 2 0.942744 0.0920321 0.252224
701 2 0.865837 0.145471 0.260013
512 2 0.875932 0.438889 0.371111
511 1 0.861093 0.475228 0.368524
556 1 0.784823 0.431214 0.275657
1075 1 0.888935 0.463919 0.487575
864 2 0.773135 0.46669 0.382651
717 2 0.955793 0.218602 0.403614
513 2 0.86877 0.484665 0.345984
491 2 0.822958 0.109264 0.34735
583 1 0.952882 0.457665 0.263258
802 1 0.776824 0.118186 0.442215
773 2 0.799395 0.351225 0.262989
772 1 0.804128 0.314189 0.270702
1003 1 0.833637 0.273034 0.442134
1006 1 0.881182 0.370771 0.383793
1007 2 0.865669 0.376478 0.40531
573 2 0.759235 0.177049 0.344649
567 2 0.885592 0.258137 0.337924
925 1 0.972015 0.0343485 0.342317
1065 2 0.726651 0.355532 0.474918
2135 2 0.908316 0.194143 0.448947
938 2 0.883169 0.111736 0.309101
987 2 0.723814 0.206257 0.4013
1590 2 0.749266 0.0910259 0.287941
582 2 0.989713 0.269646 0.264216
653 2 0.890909 0.343932 0.33605
1819 1 0.979248 0.0858506 0.260465
702 2 0.823576 0.100004 0.264143
985 1 0.72429 0.238067 0.415335
937 1 0.890306 0.115353 0.332303
509 2 0.971817 0.382302 0.263915
510 2 0.970623 0.345031 0.293975
803 2 0.815425 0.111558 0.445238
435 2 0.913977 0.22086 0.262156
434 2 0.857512 0.245493 0.268319
652 1 0.902004 0.325854 0.316065
654 2 0.870722 0.329041 0.301733
433 1 0.875563 0.211733 0.262507
700 1 0.862071 0.107749 0.266647
565 1 0.872435 0.225637 0.348823
1008 2 0.914122 0.350032 0.387782
703 1 0.75059 0.336292 0.383701
1005 2 0.866548 0.267575 0.429458
784 1 0.983617 0.327926 0.391459
490 1 0.784228 0.108875 0.351966
558 2 0.745458 0.433251 0.277072
572 2 0.739828 0.226983 0.325387
571 1 0.765231 0.215876 0.342259
774 2 0.767574 0.299279 0.271251
492 2 0.778786 0.0763908 0.365035
705 2 0.789675 0.341656 0.384721
715 1 0.924295 0.240883 0.408663
961 1 0.983359 0.042703 0.420175
936 2 0.709595 0.00530187 0.463251
845 2 0.993043 0.49323 0.307975
863 2 0.733255 0.495435 0.405764
963 2 0.984653 0.043898 0.396505
927 2 0.947564 0.00345322 0.343901
1077 2 0.916955 0.440797 0.496862
2136 2 0.896311 0.19491 0.485718
1970 2 0.772794 0.00873152 0.40649
920 2 0.898621 0.0195591 0.498103
1255 1 0.173455 0.3532 0.707255
1377 2 0.110543 0.237915 0.731281
1375 1 0.0947306 0.20432 0.723216
1374 2 0.0625024 0.318597 0.709012
1372 1 0.0733818 0.326651 0.73127
955 1 0.127817 0.308792 0.570832
956 2 0.10039 0.283456 0.578544
957 2 0.11884 0.314662 0.54803
1025 2 0.0713237 0.359293 0.647644
1015 1 0.180892 0.215641 0.636599
1016 2 0.146183 0.211065 0.647558
1017 2 0.185962 0.254753 0.635416
1239 2 0.188288 0.417255 0.556325
1341 2 0.113419 0.0775096 0.692616
1339 1 0.1387 0.0916118 0.708731
1338 2 0.162866 0.334591 0.634063
1337 2 0.221485 0.327589 0.621835
1336 1 0.198871 0.323379 0.641093
1772 2 0.167134 0.0351316 0.622145
1244 2 0.218737 0.167445 0.67092
1089 2 0.0718966 0.0434771 0.58631
1156 1 0.329018 0.109998 0.642514
1158 2 0.302212 0.124573 0.657554
1165 1 0.279847 0.352916 0.597818
1166 2 0.285132 0.344353 0.574907
1167 2 0.270916 0.391379 0.598044
1985 2 0.293574 0.0892586 0.592372
1984 1 0.259534 0.0833147 0.580905
739 1 0.212677 0.243961 0.521515
2294 2 0.323006 0.168977 0.738432
1024 1 0.102003 0.371918 0.634793
1257 2 0.138533 0.337543 0.713094
2293 1 0.314604 0.134756 0.727738
1256 2 0.177862 0.34455 0.684289
942 2 0.0647866 0.386021 0.591864
2295 2 0.285467 0.143583 0.712649
1986 2 0.244382 0.119475 0.578076
2201 2 0.177186 0.177298 0.597047
1771 1 0.203513 0.0258443 0.629484
1188 2 0.300314 0.060385 0.734284
2366 2 0.239503 0.33165 0.722686
2365 1 0.274689 0.325513 0.732791
1243 1 0.237648 0.136556 0.680361
2200 1 0.178452 0.160382 0.575651
2202 2 0.158174 0.126767 0.578209
1297 1 0.0271366 0.0710402 0.667261
2390 3 0.261159 0.0361698 0.534144
1245 2 0.209346 0.115779 0.691205
1186 1 0.295278 0.0212446 0.733433
1373 2 0.0647154 0.364879 0.734139
1248 2 0.198757 0.429764 0.716392
838 1 0.205975 0.406211 0.508184
1298 2 0.020506 0.0387979 0.654174
1383 2 0.177096 0.0172126 0.713864
1087 1 0.0900029 0.0732308 0.597475
1088 2 0.0731403 0.0743123 0.618889
1340 2 0.121272 0.124236 0.717028
1302 2 0.0335874 0.054435 0.737485
1652 2 0.328084 0.44412 0.541486
2142 2 0.11025 0.129982 0.51588
1247 2 0.21998 0.482527 0.700905
1246 1 0.210977 0.466217 0.721796
1651 1 0.332432 0.442275 0.565009
1317 2 0.329124 0.270465 0.740842
1026 2 0.108218 0.408878 0.642255
2083 1 0.316311 0.428359 0.735213
1237 1 0.176369 0.431825 0.577153
2085 2 0.282414 0.44798 0.732192
1095 2 0.00944627 0.163592 0.557057
1926 2 0.201685 0.118077 0.502246
740 2 0.190263 0.246891 0.540942
1238 2 0.15118 0.404805 0.585526
1335 2 0.0326727 0.267211 0.659528
1333 1 0.0318268 0.300897 0.671881
1299 2 0.010652 0.0629109 0.688231
1093 1 0.0472935 0.174633 0.555711
1773 2 0.227443 0.0474477 0.615802
2274 2 0.0620534 0.452734 0.734233
1094 2 0.0655599 0.153025 0.572238
2212 1 0.174807 0.00826505 0.530248
887 2 0.0423276 0.357519 0.510752
1002 2 0.04926 0.234227 0.525492
941 2 0.0511689 0.398124 0.556021
1233 2 0.146827 0.499195 0.730608
886 1 0.0759976 0.377869 0.512792
1039 1 0.115575 0.478146 0.662879
2272 1 0.0302435 0.429352 0.734761
1376 2 0.0557572 0.209625 0.725317
738 2 0.264041 0.294782 0.53042
2214 2 0.136631 0.00844607 0.536303
736 1 0.287824 0.325824 0.533712
741 2 0.195543 0.268116 0.505842
737 2 0.270678 0.355121 0.521607
1040 2 0.153773 0.479633 0.668818
1187 2 0.298363 0.0122471 0.710438
1925 2 0.226492 0.163151 0.523489
1924 1 0.236212 0.132007 0.510141
1857 2 0.331182 0.462888 0.641789
940 1 0.0489633 0.413563 0.577788
1159 1 0.0752445 0.183431 0.657933
1161 2 0.0750171 0.188252 0.681448
1160 2 0.0488789 0.154785 0.65397
1862 2 0.0845313 0.488143 0.566306
1022 2 0.204529 0.499944 0.584338
868 1 0.0517614 0.0191899 0.511489
2273 2 0.00624116 0.444248 0.718206
2367 2 0.289721 0.361686 0.735785
1041 2 0.0964393 0.489397 0.682474
1000 1 0.0553681 0.259096 0.507457
869 2 0.0411207 0.000467581 0.531349
1157 2 0.362651 0.128243 0.648371
1028 2 0.354882 0.31967 0.615361
1098 2 0.342513 0.0421828 0.629077
1874 2 0.615672 0.036454 0.62467
1096 1 0.351816 0.00670586 0.620297
1027 1 0.390646 0.325833 0.6247
1029 2 0.383462 0.342991 0.6456
1109 2 0.349256 0.250548 0.662197
1653 2 0.366738 0.423446 0.568178
2084 2 0.343663 0.456612 0.737376
1097 2 0.38807 0.0113576 0.61133
1108 1 0.373661 0.229603 0.675946
1168 1 0.536565 0.142441 0.592941
1170 2 0.559336 0.172361 0.585701
1169 2 0.505903 0.159872 0.603597
2360 2 0.554803 0.10848 0.683463
894 2 0.459902 0.177047 0.510424
1353 2 0.477438 0.0262704 0.627002
979 1 0.457907 0.237407 0.608204
898 1 0.363922 0.400744 0.676253
900 2 0.401115 0.398169 0.684063
2398 4 0.482701 0.405458 0.700131
1047 2 0.458267 0.405625 0.538568
899 2 0.341761 0.395759 0.695633
904 1 0.541463 0.0738435 0.535777
981 2 0.458054 0.243881 0.584832
967 1 0.556856 0.286158 0.604298
968 2 0.560254 0.315364 0.620114
969 2 0.520049 0.272696 0.607196
980 2 0.433927 0.265194 0.616943
1356 2 0.478654 0.315137 0.722509
1354 1 0.474629 0.281419 0.734602
1315 1 0.353597 0.239529 0.741933
1106 2 0.426333 0.0999067 0.580952
1263 2 0.546604 0.415186 0.570099
1261 1 0.544108 0.434733 0.590631
1110 2 0.356521 0.229883 0.69729
1120 1 0.458332 0.244449 0.537149
1121 2 0.486225 0.259208 0.522906
1138 1 0.591197 0.151518 0.648824
1200 2 0.446574 0.136157 0.704764
1198 1 0.428965 0.102248 0.710748
1194 2 0.459523 0.204103 0.680967
1193 2 0.491827 0.21095 0.712774
1192 1 0.489286 0.188423 0.693374
2359 1 0.548599 0.0811141 0.700134
1316 2 0.389561 0.255047 0.738924
1278 2 0.471426 0.412137 0.591794
1277 2 0.42441 0.37174 0.596368
1140 2 0.564449 0.148024 0.63152
1212 2 0.57501 0.277817 0.708248
905 2 0.523688 0.0820628 0.556351
1276 1 0.441382 0.395198 0.580257
1139 2 0.588305 0.189127 0.655834
1394 2 0.619369 0.358274 0.734033
892 1 0.44894 0.139944 0.505679
1122 2 0.42429 0.255924 0.527311
1275 2 0.596255 0.245484 0.571635
1393 1 0.583927 0.342208 0.738061
1274 2 0.594513 0.229936 0.535357
906 2 0.561587 0.0405965 0.539977
1273 1 0.608223 0.217791 0.556348
1223 2 0.568251 0.390213 0.629104
1210 1 0.575714 0.253382 0.689641
903 2 0.601134 0.0849792 0.505693
1199 2 0.393183 0.113048 0.718393
2385 3 0.629053 0.0253324 0.700821
1361 2 0.623684 0.195107 0.710314
1211 2 0.539963 0.236615 0.689516
895 1 0.351659 0.0590641 0.514326
897 2 0.365381 0.077839 0.533475
1360 1 0.645369 0.177963 0.727233
1224 2 0.552921 0.369189 0.66317
1222 1 0.579094 0.364174 0.645686
1264 1 0.470163 0.49965 0.640651
778 1 0.580799 0.372249 0.520118
1105 1 0.399888 0.107713 0.563992
1107 2 0.419584 0.129775 0.548293
827 2 0.347598 0.295511 0.51077
2361 2 0.510071 0.0838844 0.705051
893 2 0.482917 0.120238 0.503234
1151 2 0.6537 0.399141 0.655138
1351 1 0.467369 0.0347385 0.604663
1045 1 0.471365 0.414829 0.516909
1046 2 0.509345 0.404019 0.517025
1400 2 0.643404 0.446592 0.730918
2109 2 0.435008 0.467394 0.7319
779 2 0.60722 0.394897 0.50892
1206 2 0.543854 0.448515 0.725074
983 2 0.465448 0.485921 0.526079
780 2 0.578872 0.339331 0.507082
1133 2 0.655436 0.274041 0.680224
2370 2 0.661657 0.116983 0.654927
1266 2 0.472057 0.464539 0.651433
896 2 0.358569 0.0208668 0.518676
1347 2 0.363589 0.000226503 0.738291
1262 2 0.550665 0.472459 0.584843
1293 2 0.649488 0.342376 0.541294
1292 2 0.663223 0.281624 0.544049
1204 1 0.571355 0.470636 0.7357
1395 2 0.558978 0.372815 0.737921
1346 2 0.413671 0.0335118 0.72817
1352 2 0.472394 0.000813614 0.592917
2107 1 0.411651 0.497328 0.738409
860 2 0.989116 0.290219 0.513535
2066 2 0.918678 0.470264 0.693299
2339 2 0.842754 0.00951689 0.616396
2300 2 0.838788 0.476129 0.727212
2372 2 0.674995 0.0340614 0.564755
2371 1 0.704043 0.0492972 0.577947
2299 1 0.850782 0.49465 0.707563
1216 1 0.962323 0.478154 0.61545
2373 2 0.737219 0.036698 0.567556
1218 2 0.987839 0.45848 0.601752
2114 2 0.724284 0.300628 0.516206
1195 1 0.691885 0.0727239 0.741533
2046 2 0.976112 0.0658152 0.511555
2338 1 0.821044 0.00816207 0.63617
2268 2 0.703126 0.127222 0.566668
1217 2 0.926953 0.470481 0.605974
2267 2 0.674263 0.181441 0.559883
1150 1 0.691915 0.403328 0.66055
2065 1 0.95041 0.448905 0.687413
859 1 0.969437 0.321952 0.521244
861 2 0.93367 0.30822 0.526983
2044 1 0.939404 0.076288 0.505488
1645 1 0.859854 0.446168 0.587609
2115 2 0.784505 0.284522 0.513911
1334 2 0.99626 0.316267 0.667309
2375 2 0.947663 0.266693 0.737784
1401 2 0.684739 0.435596 0.703612
1226 2 0.943243 0.381972 0.682045
1300 1 0.999202 0.0737561 0.736332
1225 1 0.932969 0.344376 0.678236
991 1 0.794736 0.157142 0.521477
1227 2 0.936466 0.327058 0.699425
931 1 0.803957 0.0468004 0.546129
1301 2 0.971862 0.0459537 0.740073
1362 2 0.673104 0.204669 0.732496
1092 2 0.954579 0.237194 0.593467
1136 2 0.858806 0.0406755 0.668462
1330 1 0.985839 0.202516 0.727172
1332 2 0.98873 0.171141 0.741454
2343 2 0.914123 0.1626 0.652195
1220 2 0.820605 0.346853 0.731138
992 2 0.822732 0.183253 0.527288
1331 2 0.966468 0.18914 0.70815
1152 2 0.702645 0.368095 0.669095
2368 1 0.686131 0.0862798 0.65745
947 2 0.95644 0.31441 0.602107
1716 2 0.87081 0.114573 0.572158
946 1 0.989607 0.304302 0.590768
1364 2 0.757205 0.107004 0.711807
1154 2 0.885739 0.344398 0.636885
1090 1 0.937109 0.209596 0.606783
2374 1 0.943109 0.304393 0.744284
1091 2 0.926381 0.181576 0.591379
948 2 0.981422 0.310158 0.567857
1153 1 0.875045 0.335195 0.614755
1329 2 0.860787 0.23362 0.676364
2396 4 0.864132 0.257298 0.53927
1328 2 0.825733 0.282021 0.687251
1371 2 0.778357 0.25953 0.726632
2113 1 0.751719 0.28818 0.500889
2266 1 0.709625 0.166073 0.565001
993 2 0.765016 0.164821 0.536382
2386 3 0.832257 0.247083 0.598784
1404 2 0.801576 0.42305 0.703732
1403 2 0.749519 0.425715 0.724373
1402 1 0.786965 0.413214 0.724937
1399 1 0.682185 0.445442 0.726506
1145 2 0.804203 0.161711 0.642458
1370 2 0.766673 0.207037 0.707578
1369 1 0.749264 0.234536 0.720995
1365 2 0.809977 0.101797 0.692011
1363 1 0.775471 0.120977 0.692547
1291 1 0.678039 0.31759 0.54813
1019 2 0.738728 0.446448 0.633826
1221 2 0.867155 0.307683 0.739609
1132 1 0.690339 0.289638 0.674288
1134 2 0.716757 0.268503 0.686507
1219 1 0.830497 0.308627 0.73082
1215 2 0.726799 0.299747 0.628772
1144 1 0.806622 0.157991 0.618915
1146 2 0.769512 0.162594 0.611303
1214 2 0.729343 0.305929 0.591514
1213 1 0.742755 0.283684 0.60936
1155 2 0.869763 0.370062 0.604094
1327 1 0.833216 0.25878 0.66863
2369 2 0.720171 0.10232 0.664634
1714 1 0.910206 0.117097 0.572738
1715 2 0.921462 0.110552 0.55037
2341 1 0.91406 0.170104 0.675457
2342 2 0.900495 0.136887 0.685351
1135 1 0.877118 0.0647629 0.683686
932 2 0.817767 0.023415 0.52893
933 2 0.800164 0.0822053 0.535886
1647 2 0.829246 0.447549 0.602557
1646 2 0.846118 0.462038 0.56754
1196 2 0.673589 0.107665 0.740386
1137 2 0.888483 0.0411969 0.701432
2187 2 0.678099 0.472992 0.513686
2387 3 0.723425 0.00460304 0.633631
2067 2 0.959938 0.461394 0.665676
1076 2 0.869763 0.478531 0.506342
1018 1 0.764226 0.475319 0.628609
109 5 0 0 0.8
110 5 0.0833333 0.0833333 0.8
111 5 0.0833333 0 0.85
112 5 0 0.0833333 0.85
113 5 0.166667 0 0.8
114 5 0.25 0.0833333 0.8
115 5 0.25 0 0.85
116 5 0.166667 0.0833333 0.85
133 5 0 0.166667 0.8
134 5 0.0833333 0.25 0.8
135 5 0.0833333 0.166667 0.85
136 5 0 0.25 0.85
137 5 0.166667 0.166667 0.8
138 5 0.25 0.25 0.8
139 5 0.25 0.166667 0.85
140 5 0.166667 0.25 0.85
157 5 0 0.333333 0.8
158 5 0.0833333 0.416667 0.8
159 5 0.0833333 0.333333 0.85
160 5 0 0.416667 0.85
161 5 0.166667 0.333333 0.8
162 5 0.25 0.416667 0.8
163 5 0.25 0.333333 0.85
164 5 0.166667 0.416667 0.85
181 5 0 0 0.9
182 5 0.0833333 0.0833333 0.9
183 5 0.166667 0 0.9
184 5 0.25 0.0833333 0.9
193 5 0 0.166667 0.9
194 5 0.0833333 0.25 0.9
195 5 0.166667 0.166667 0.9
196 5 0.25 0.25 0.9
205 5 0 0.333333 0.9
206 5 0.0833333 0.416667 0.9
207 5 0.166667 0.333333 0.9
208 5 0.25 0.416667 0.9
1355 2 0.482334 0.291292 0.757072
209 5 0.333333 0.333333 0.9
213 5 0.666667 0.333333 0.9
201 5 0.666667 0.166667 0.9
210 5 0.416667 0.416667 0.9
212 5 0.583333 0.416667 0.9
211 5 0.5 0.333333 0.9
117 5 0.333333 0 0.8
118 5 0.416667 0.0833333 0.8
119 5 0.416667 0 0.85
120 5 0.333333 0.0833333 0.85
121 5 0.5 0 0.8
122 5 0.583333 0.0833333 0.8
123 5 0.583333 0 0.85
124 5 0.5 0.0833333 0.85
125 5 0.666667 0 0.8
128 5 0.666667 0.0833333 0.85
141 5 0.333333 0.166667 0.8
142 5 0.416667 0.25 0.8
143 5 0.416667 0.166667 0.85
144 5 0.333333 0.25 0.85
145 5 0.5 0.166667 0.8
146 5 0.583333 0.25 0.8
147 5 0.583333 0.166667 0.85
148 5 0.5 0.25 0.85
149 5 0.666667 0.166667 0.8
152 5 0.666667 0.25 0.85
165 5 0.333333 0.333333 0.8
166 5 0.416667 0.416667 0.8
167 5 0.416667 0.333333 0.85
168 5 0.333333 0.416667 0.85
169 5 0.5 0.333333 0.8
170 5 0.583333 0.416667 0.8
171 5 0.583333 0.333333 0.85
172 5 0.5 0.416667 0.85
173 5 0.666667 0.333333 0.8
176 5 0.666667 0.416667 0.85
185 5 0.333333 0 0.9
186 5 0.416667 0.0833333 0.9
187 5 0.5 0 0.9
188 5 0.583333 0.0833333 0.9
189 5 0.666667 0 0.9
197 5 0.333333 0.166667 0.9
198 5 0.416667 0.25 0.9
199 5 0.5 0.166667 0.9
200 5 0.583333 0.25 0.9
191 5 0.833333 0 0.9
203 5 0.833333 0.166667 0.9
204 5 0.916667 0.25 0.9
153 5 0.833333 0.166667 0.8
202 5 0.75 0.25 0.9
126 5 0.75 0.0833333 0.8
1197 2 0.674307 0.0539711 0.75952
177 5 0.833333 0.333333 0.8
154 5 0.916667 0.25 0.8
190 5 0.75 0.0833333 0.9
178 5 0.916667 0.416667 0.8
2376 2 0.972665 0.311057 0.759479
150 5 0.75 0.25 0.8
130 5 0.916667 0.0833333 0.8
216 5 0.916667 0.416667 0.9
179 5 0.916667 0.333333 0.85
127 5 0.75 0 0.85
151 5 0.75 0.166667 0.85
215 5 0.833333 0.333333 0.9
131 5 0.916667 0 0.85
214 5 0.75 0.416667 0.9
156 5 0.833333 0.25 0.85
155 5 0.916667 0.166667 0.85
175 5 0.75 0.333333 0.85
132 5 0.833333 0.0833333 0.85
192 5 0.916667 0.0833333 0.9
129 5 0.833333 0 0.8
174 5 0.75 0.416667 0.8
180 5 0.833333 0.416667 0.85
217 5 0 0.5 0.1
218 5 0.0833333 0.583333 0.1
219 5 0.0833333 0.5 0.15
220 5 0 0.583333 0.15
221 5 0.166667 0.5 0.1
222 5 0.25 0.583333 0.1
223 5 0.25 0.5 0.15
224 5 0.166667 0.583333 0.15
241 5 0 0.666667 0.1
242 5 0.0833333 0.75 0.1
243 5 0.0833333 0.666667 0.15
244 5 0 0.75 0.15
245 5 0.166667 0.666667 0.1
246 5 0.25 0.75 0.1
247 5 0.25 0.666667 0.15
248 5 0.166667 0.75 0.15
265 5 0 0.833333 0.1
266 5 0.0833333 0.916667 0.1
267 5 0.0833333 0.833333 0.15
268 5 0 0.916667 0.15
269 5 0.166667 0.833333 0.1
270 5 0.25 0.916667 0.1
271 5 0.25 0.833333 0.15
272 5 0.166667 0.916667 0.15
289 5 0 0.5 0.2
290 5 0.0833333 0.583333 0.2
291 5 0.166667 0.5 0.2
292 5 0.25 0.583333 0.2
301 5 0 0.666667 0.2
302 5 0.0833333 0.75 0.2
303 5 0.166667 0.666667 0.2
304 5 0.25 0.75 0.2
313 5 0 0.833333 0.2
314 5 0.0833333 0.916667 0.2
315 5 0.166667 0.833333 0.2
316 5 0.25 0.916667 0.2
1790 2 0.154602 0.888006 0.245064
225 5 0.333333 0.5 0.1
226 5 0.416667 0.583333 0.1
227 5 0.416667 0.5 0.15
228 5 0.333333 0.583333 0.15
229 5 0.5 0.5 0.1
230 5 0.583333 0.583333 0.1
231 5 0.583333 0.5 0.15
232 5 0.5 0.583333 0.15
233 5 0.666667 0.5 0.1
236 5 0.666667 0.583333 0.15
249 5 0.333333 0.666667 0.1
250 5 0.416667 0.75 0.1
251 5 0.416667 0.666667 0.15
252 5 0.333333 0.75 0.15
253 5 0.5 0.666667 0.1
254 5 0.583333 0.75 0.1
255 5 0.583333 0.666667 0.15
256 5 0.5 0.75 0.15
257 5 0.666667 0.666667 0.1
260 5 0.666667 0.75 0.15
273 5 0.333333 0.833333 0.1
274 5 0.416667 0.916667 0.1
275 5 0.416667 0.833333 0.15
276 5 0.333333 0.916667 0.15
277 5 0.5 0.833333 0.1
278 5 0.583333 0.916667 0.1
279 5 0.583333 0.833333 0.15
280 5 0.5 0.916667 0.15
281 5 0.666667 0.833333 0.1
284 5 0.666667 0.916667 0.15
293 5 0.333333 0.5 0.2
294 5 0.416667 0.583333 0.2
295 5 0.5 0.5 0.2
296 5 0.583333 0.583333 0.2
297 5 0.666667 0.5 0.2
305 5 0.333333 0.666667 0.2
306 5 0.416667 0.75 0.2
307 5 0.5 0.666667 0.2
308 5 0.583333 0.75 0.2
309 5 0.666667 0.666667 0.2
317 5 0.333333 0.833333 0.2
318 5 0.416667 0.916667 0.2
319 5 0.5 0.833333 0.2
320 5 0.583333 0.916667 0.2
321 5 0.666667 0.833333 0.2
234 5 0.75 0.583333 0.1
235 5 0.75 0.5 0.15
237 5 0.833333 0.5 0.1
238 5 0.916667 0.583333 0.1
239 5 0.916667 0.5 0.15
240 5 0.833333 0.583333 0.15
258 5 0.75 0.75 0.1
259 5 0.75 0.666667 0.15
261 5 0.833333 0.666667 0.1
262 5 0.916667 0.75 0.1
263 5 0.916667 0.666667 0.15
264 5 0.833333 0.75 0.15
282 5 0.75 0.916667 0.1
283 5 0.75 0.833333 0.15
285 5 0.833333 0.833333 0.1
286 5 0.916667 0.916667 0.1
287 5 0.916667 0.833333 0.15
288 5 0.833333 0.916667 0.15
298 5 0.75 0.583333 0.2
299 5 0.833333 0.5 0.2
300 5 0.916667 0.583333 0.2
310 5 0.75 0.75 0.2
311 5 0.833333 0.666667 0.2
312 5 0.916667 0.75 0.2
322 5 0.75 0.916667 0.2
323 5 0.833333 0.833333 0.2
324 5 0.916667 0.916667 0.2
1754 2 0.892574 0.666812 0.245198
1598 2 0.874046 0.884686 0.241888
494 2 0.0389215 0.945097 0.254739
1791 2 0.112863 0.861453 0.267938
1434 2 0.251529 0.71358 0.250852
618 2 0.305266 0.63774 0.276298
459 2 0.124837 0.709369 0.272013
2166 2 0.261184 0.794275 0.47685
1421 2 0.129394 0.545806 0.263977
1422 2 0.18112 0.576031 0.253389