ITEM: TIMESTEP
0
ITEM: NUMBER OF ATOMS
576
ITEM: BOX BOUNDS pp pp pp
0.0000000000000000e+00 2.0585577711599999e+01
0.0000000000000000e+00 2.0585577711599999e+01
0.0000000000000000e+00 2.0585577711599999e+01
ITEM: ATOMS id type xs ys zs
1 1 0.112157 0 0.175048
4 2 0.0668428 0.0554174 0.206224
151 2 0.0145715 0.0855963 0.0437758
295 2 0.0145715 0.0855963 0.293776
37 1 0.112157 0.25 0.175048
40 2 0.0668428 0.305417 0.206224
42 2 0.0145715 0.164404 0.293748
189 2 0.0668428 0.194583 0.1313
474 2 0.0145715 0.164404 0.0437482
11 1 0.193922 0.0971304 0.087524
13 2 0.316843 0.0554174 0.206224
160 2 0.264572 0.0855963 0.0437758
304 2 0.264572 0.0855963 0.293776
446 2 0.168586 0.0301788 0.131272
48 1 0.193922 0.15287 0
49 2 0.316843 0.305417 0.206224
51 2 0.264572 0.164404 0.293748
192 1 0.193922 0.15287 0.25
197 2 0.168586 0.219821 0.218824
198 2 0.316843 0.194583 0.1313
482 2 0.168586 0.280179 0.131272
483 2 0.264572 0.164404 0.0437482
10 1 0.362157 0 0.175048
46 1 0.362157 0.25 0.175048
19 1 0.612157 0 0.175048
20 1 0.443922 0.0971304 0.087524
22 2 0.566843 0.0554174 0.206224
169 2 0.514572 0.0855963 0.0437758
313 2 0.514572 0.0855963 0.293776
455 2 0.418586 0.0301788 0.131272
55 1 0.612157 0.25 0.175048
57 1 0.443922 0.15287 0
58 2 0.566843 0.305417 0.206224
60 2 0.514572 0.164404 0.293748
201 1 0.443922 0.15287 0.25
206 2 0.418586 0.219821 0.218824
207 2 0.566843 0.194583 0.1313
491 2 0.418586 0.280179 0.131272
492 2 0.514572 0.164404 0.0437482
2 1 0.943922 0.0971304 0.087524
437 2 0.918586 0.0301788 0.131272
39 1 0.943922 0.15287 0
183 1 0.943922 0.15287 0.25
188 2 0.918586 0.219821 0.218824
473 2 0.918586 0.280179 0.131272
28 1 0.862157 0 0.175048
29 1 0.693922 0.0971304 0.087524
31 2 0.816843 0.0554174 0.206224
178 2 0.764572 0.0855963 0.0437758
322 2 0.764572 0.0855963 0.293776
464 2 0.668586 0.0301788 0.131272
64 1 0.862157 0.25 0.175048
66 1 0.693922 0.15287 0
67 2 0.816843 0.305417 0.206224
69 2 0.764572 0.164404 0.293748
210 1 0.693922 0.15287 0.25
215 2 0.668586 0.219821 0.218824
216 2 0.816843 0.194583 0.1313
500 2 0.668586 0.280179 0.131272
501 2 0.764572 0.164404 0.0437482
187 2 0.0145715 0.335596 0.0437758
331 2 0.0145715 0.335596 0.293776
73 1 0.112157 0.5 0.175048
76 2 0.0668428 0.555417 0.206224
78 2 0.0145715 0.414404 0.293748
223 2 0.0145715 0.585596 0.0437758
225 2 0.0668428 0.444583 0.1313
367 2 0.0145715 0.585596 0.293776
510 2 0.0145715 0.414404 0.0437482
114 2 0.0145715 0.664404 0.293748
546 2 0.0145715 0.664404 0.0437482
47 1 0.193922 0.34713 0.087524
196 2 0.264572 0.335596 0.0437758
340 2 0.264572 0.335596 0.293776
83 1 0.193922 0.59713 0.087524
84 1 0.193922 0.40287 0
85 2 0.316843 0.555417 0.206224
87 2 0.264572 0.414404 0.293748
228 1 0.193922 0.40287 0.25
232 2 0.264572 0.585596 0.0437758
233 2 0.168586 0.469821 0.218824
234 2 0.316843 0.444583 0.1313
376 2 0.264572 0.585596 0.293776
518 2 0.168586 0.530179 0.131272
519 2 0.264572 0.414404 0.0437482
120 1 0.193922 0.65287 0
123 2 0.264572 0.664404 0.293748
264 1 0.193922 0.65287 0.25
555 2 0.264572 0.664404 0.0437482
82 1 0.362157 0.5 0.175048
56 1 0.443922 0.34713 0.087524
205 2 0.514572 0.335596 0.0437758
349 2 0.514572 0.335596 0.293776
91 1 0.612157 0.5 0.175048
92 1 0.443922 0.59713 0.087524
93 1 0.443922 0.40287 0
94 2 0.566843 0.555417 0.206224
96 2 0.514572 0.414404 0.293748
237 1 0.443922 0.40287 0.25
241 2 0.514572 0.585596 0.0437758
242 2 0.418586 0.469821 0.218824
243 2 0.566843 0.444583 0.1313
385 2 0.514572 0.585596 0.293776
527 2 0.418586 0.530179 0.131272
528 2 0.514572 0.414404 0.0437482
129 1 0.443922 0.65287 0
132 2 0.514572 0.664404 0.293748
273 1 0.443922 0.65287 0.25
564 2 0.514572 0.664404 0.0437482
38 1 0.943922 0.34713 0.087524
74 1 0.943922 0.59713 0.087524
75 1 0.943922 0.40287 0
219 1 0.943922 0.40287 0.25
224 2 0.918586 0.469821 0.218824
509 2 0.918586 0.530179 0.131272
111 1 0.943922 0.65287 0
255 1 0.943922 0.65287 0.25
65 1 0.693922 0.34713 0.087524
214 2 0.764572 0.335596 0.0437758
358 2 0.764572 0.335596 0.293776
100 1 0.862157 0.5 0.175048
101 1 0.693922 0.59713 0.087524
102 1 0.693922 0.40287 0
103 2 0.816843 0.555417 0.206224
105 2 0.764572 0.414404 0.293748
246 1 0.693922 0.40287 0.25
250 2 0.764572 0.585596 0.0437758
251 2 0.668586 0.469821 0.218824
252 2 0.816843 0.444583 0.1313
394 2 0.764572 0.585596 0.293776
536 2 0.668586 0.530179 0.131272
537 2 0.764572 0.414404 0.0437482
138 1 0.693922 0.65287 0
141 2 0.764572 0.664404 0.293748
282 1 0.693922 0.65287 0.25
573 2 0.764572 0.664404 0.0437482
6 2 0.0145715 0.914404 0.293748
153 2 0.0668428 0.944583 0.1313
438 2 0.0145715 0.914404 0.0437482
109 1 0.112157 0.75 0.175048
112 2 0.0668428 0.805417 0.206224
259 2 0.0145715 0.835596 0.0437758
261 2 0.0668428 0.694583 0.1313
403 2 0.0145715 0.835596 0.293776
12 1 0.193922 0.90287 0
15 2 0.264572 0.914404 0.293748
156 1 0.193922 0.90287 0.25
161 2 0.168586 0.969821 0.218824
162 2 0.316843 0.944583 0.1313
447 2 0.264572 0.914404 0.0437482
119 1 0.193922 0.84713 0.087524
121 2 0.316843 0.805417 0.206224
268 2 0.264572 0.835596 0.0437758
269 2 0.168586 0.719821 0.218824
270 2 0.316843 0.694583 0.1313
412 2 0.264572 0.835596 0.293776
554 2 0.168586 0.780179 0.131272
118 1 0.362157 0.75 0.175048
21 1 0.443922 0.90287 0
24 2 0.514572 0.914404 0.293748
165 1 0.443922 0.90287 0.25
170 2 0.418586 0.969821 0.218824
171 2 0.566843 0.944583 0.1313
456 2 0.514572 0.914404 0.0437482
127 1 0.612157 0.75 0.175048
128 1 0.443922 0.84713 0.087524
130 2 0.566843 0.805417 0.206224
277 2 0.514572 0.835596 0.0437758
278 2 0.418586 0.719821 0.218824
279 2 0.566843 0.694583 0.1313
421 2 0.514572 0.835596 0.293776
563 2 0.418586 0.780179 0.131272
3 1 0.943922 0.90287 0
147 1 0.943922 0.90287 0.25
152 2 0.918586 0.969821 0.218824
110 1 0.943922 0.84713 0.087524
260 2 0.918586 0.719821 0.218824
545 2 0.918586 0.780179 0.131272
30 1 0.693922 0.90287 0
33 2 0.764572 0.914404 0.293748
174 1 0.693922 0.90287 0.25
179 2 0.668586 0.969821 0.218824
180 2 0.816843 0.944583 0.1313
465 2 0.764572 0.914404 0.0437482
136 1 0.862157 0.75 0.175048
137 1 0.693922 0.84713 0.087524
139 2 0.816843 0.805417 0.206224
286 2 0.764572 0.835596 0.0437758
287 2 0.668586 0.719821 0.218824
288 2 0.816843 0.694583 0.1313
430 2 0.764572 0.835596 0.293776
572 2 0.668586 0.780179 0.131272
145 1 0.112157 0 0.425048
148 2 0.0668428 0.0554174 0.456224
439 2 0.0145715 0.0855963 0.543776
181 1 0.112157 0.25 0.425048
184 2 0.0668428 0.305417 0.456224
186 2 0.0145715 0.164404 0.543748
333 2 0.0668428 0.194583 0.3813
477 2 0.0668428 0.194583 0.6313
14 2 0.168586 0.0301788 0.381272
155 1 0.193922 0.0971304 0.337524
157 2 0.316843 0.0554174 0.456224
158 2 0.168586 0.0301788 0.631272
299 1 0.193922 0.0971304 0.587524
448 2 0.264572 0.0855963 0.543776
50 2 0.168586 0.280179 0.381272
193 2 0.316843 0.305417 0.456224
194 2 0.168586 0.280179 0.631272
195 2 0.264572 0.164404 0.543748
336 1 0.193922 0.15287 0.5
341 2 0.168586 0.219821 0.468824
342 2 0.316843 0.194583 0.3813
486 2 0.316843 0.194583 0.6313
154 1 0.362157 0 0.425048
190 1 0.362157 0.25 0.425048
23 2 0.418586 0.0301788 0.381272
163 1 0.612157 0 0.425048
164 1 0.443922 0.0971304 0.337524
166 2 0.566843 0.0554174 0.456224
167 2 0.418586 0.0301788 0.631272
308 1 0.443922 0.0971304 0.587524
457 2 0.514572 0.0855963 0.543776
59 2 0.418586 0.280179 0.381272
199 1 0.612157 0.25 0.425048
202 2 0.566843 0.305417 0.456224
203 2 0.418586 0.280179 0.631272
204 2 0.514572 0.164404 0.543748
345 1 0.443922 0.15287 0.5
350 2 0.418586 0.219821 0.468824
351 2 0.566843 0.194583 0.3813
495 2 0.566843 0.194583 0.6313
5 2 0.918586 0.0301788 0.381272
146 1 0.943922 0.0971304 0.337524
149 2 0.918586 0.0301788 0.631272
290 1 0.943922 0.0971304 0.587524
41 2 0.918586 0.280179 0.381272
185 2 0.918586 0.280179 0.631272
327 1 0.943922 0.15287 0.5
332 2 0.918586 0.219821 0.468824
32 2 0.668586 0.0301788 0.381272
172 1 0.862157 0 0.425048
173 1 0.693922 0.0971304 0.337524
175 2 0.816843 0.0554174 0.456224
176 2 0.668586 0.0301788 0.631272
317 1 0.693922 0.0971304 0.587524
466 2 0.764572 0.0855963 0.543776
68 2 0.668586 0.280179 0.381272
208 1 0.862157 0.25 0.425048
211 2 0.816843 0.305417 0.456224
212 2 0.668586 0.280179 0.631272
213 2 0.764572 0.164404 0.543748
354 1 0.693922 0.15287 0.5
359 2 0.668586 0.219821 0.468824
360 2 0.816843 0.194583 0.3813
504 2 0.816843 0.194583 0.6313
475 2 0.0145715 0.335596 0.543776
217 1 0.112157 0.5 0.425048
220 2 0.0668428 0.555417 0.456224
222 2 0.0145715 0.414404 0.543748
369 2 0.0668428 0.444583 0.3813
511 2 0.0145715 0.585596 0.543776
513 2 0.0668428 0.444583 0.6313
258 2 0.0145715 0.664404 0.543748
191 1 0.193922 0.34713 0.337524
335 1 0.193922 0.34713 0.587524
484 2 0.264572 0.335596 0.543776
86 2 0.168586 0.530179 0.381272
227 1 0.193922 0.59713 0.337524
229 2 0.316843 0.555417 0.456224
230 2 0.168586 0.530179 0.631272
231 2 0.264572 0.414404 0.543748
371 1 0.193922 0.59713 0.587524
372 1 0.193922 0.40287 0.5
377 2 0.168586 0.469821 0.468824
378 2 0.316843 0.444583 0.3813
520 2 0.264572 0.585596 0.543776
522 2 0.316843 0.444583 0.6313
267 2 0.264572 0.664404 0.543748
408 1 0.193922 0.65287 0.5
226 1 0.362157 0.5 0.425048
200 1 0.443922 0.34713 0.337524
344 1 0.443922 0.34713 0.587524
493 2 0.514572 0.335596 0.543776
95 2 0.418586 0.530179 0.381272
235 1 0.612157 0.5 0.425048
236 1 0.443922 0.59713 0.337524
238 2 0.566843 0.555417 0.456224
239 2 0.418586 0.530179 0.631272
240 2 0.514572 0.414404 0.543748
380 1 0.443922 0.59713 0.587524
381 1 0.443922 0.40287 0.5
386 2 0.418586 0.469821 0.468824
387 2 0.566843 0.444583 0.3813
529 2 0.514572 0.585596 0.543776
531 2 0.566843 0.444583 0.6313
276 2 0.514572 0.664404 0.543748
417 1 0.443922 0.65287 0.5
182 1 0.943922 0.34713 0.337524
326 1 0.943922 0.34713 0.587524
77 2 0.918586 0.530179 0.381272
218 1 0.943922 0.59713 0.337524
221 2 0.918586 0.530179 0.631272
362 1 0.943922 0.59713 0.587524
363 1 0.943922 0.40287 0.5
368 2 0.918586 0.469821 0.468824
399 1 0.943922 0.65287 0.5
209 1 0.693922 0.34713 0.337524
353 1 0.693922 0.34713 0.587524
502 2 0.764572 0.335596 0.543776
104 2 0.668586 0.530179 0.381272
244 1 0.862157 0.5 0.425048
245 1 0.693922 0.59713 0.337524
247 2 0.816843 0.555417 0.456224
248 2 0.668586 0.530179 0.631272
249 2 0.764572 0.414404 0.543748
389 1 0.693922 0.59713 0.587524
390 1 0.693922 0.40287 0.5
395 2 0.668586 0.469821 0.468824
396 2 0.816843 0.444583 0.3813
538 2 0.764572 0.585596 0.543776
540 2 0.816843 0.444583 0.6313
285 2 0.764572 0.664404 0.543748
426 1 0.693922 0.65287 0.5
150 2 0.0145715 0.914404 0.543748
297 2 0.0668428 0.944583 0.3813
441 2 0.0668428 0.944583 0.6313
253 1 0.112157 0.75 0.425048
256 2 0.0668428 0.805417 0.456224
405 2 0.0668428 0.694583 0.3813
547 2 0.0145715 0.835596 0.543776
549 2 0.0668428 0.694583 0.6313
159 2 0.264572 0.914404 0.543748
300 1 0.193922 0.90287 0.5
305 2 0.168586 0.969821 0.468824
306 2 0.316843 0.944583 0.3813
450 2 0.316843 0.944583 0.6313
122 2 0.168586 0.780179 0.381272
263 1 0.193922 0.84713 0.337524
265 2 0.316843 0.805417 0.456224
266 2 0.168586 0.780179 0.631272
407 1 0.193922 0.84713 0.587524
413 2 0.168586 0.719821 0.468824
414 2 0.316843 0.694583 0.3813
556 2 0.264572 0.835596 0.543776
558 2 0.316843 0.694583 0.6313
262 1 0.362157 0.75 0.425048
168 2 0.514572 0.914404 0.543748
309 1 0.443922 0.90287 0.5
314 2 0.418586 0.969821 0.468824
315 2 0.566843 0.944583 0.3813
459 2 0.566843 0.944583 0.6313
131 2 0.418586 0.780179 0.381272
271 1 0.612157 0.75 0.425048
272 1 0.443922 0.84713 0.337524
274 2 0.566843 0.805417 0.456224
275 2 0.418586 0.780179 0.631272
416 1 0.443922 0.84713 0.587524
422 2 0.418586 0.719821 0.468824
423 2 0.566843 0.694583 0.3813
565 2 0.514572 0.835596 0.543776
567 2 0.566843 0.694583 0.6313
291 1 0.943922 0.90287 0.5
296 2 0.918586 0.969821 0.468824
113 2 0.918586 0.780179 0.381272
254 1 0.943922 0.84713 0.337524
257 2 0.918586 0.780179 0.631272
398 1 0.943922 0.84713 0.587524
404 2 0.918586 0.719821 0.468824
177 2 0.764572 0.914404 0.543748
318 1 0.693922 0.90287 0.5
323 2 0.668586 0.969821 0.468824
324 2 0.816843 0.944583 0.3813
468 2 0.816843 0.944583 0.6313
140 2 0.668586 0.780179 0.381272
280 1 0.862157 0.75 0.425048
281 1 0.693922 0.84713 0.337524
283 2 0.816843 0.805417 0.456224
284 2 0.668586 0.780179 0.631272
425 1 0.693922 0.84713 0.587524
431 2 0.668586 0.719821 0.468824
432 2 0.816843 0.694583 0.3813
574 2 0.764572 0.835596 0.543776
576 2 0.816843 0.694583 0.6313
7 2 0.0145715 0.0855963 0.793776
289 1 0.112157 0 0.675048
292 2 0.0668428 0.0554174 0.706224
433 1 0.112157 0 0.925048
436 2 0.0668428 0.0554174 0.956224
45 2 0.0668428 0.194583 0.8813
325 1 0.112157 0.25 0.675048
328 2 0.0668428 0.305417 0.706224
330 2 0.0145715 0.164404 0.793748
469 1 0.112157 0.25 0.925048
472 2 0.0668428 0.305417 0.956224
16 2 0.264572 0.0855963 0.793776
301 2 0.316843 0.0554174 0.706224
302 2 0.168586 0.0301788 0.881272
443 1 0.193922 0.0971304 0.837524
445 2 0.316843 0.0554174 0.956224
53 2 0.168586 0.219821 0.968824
54 2 0.316843 0.194583 0.8813
337 2 0.316843 0.305417 0.706224
338 2 0.168586 0.280179 0.881272
339 2 0.264572 0.164404 0.793748
480 1 0.193922 0.15287 0.75
481 2 0.316843 0.305417 0.956224
485 2 0.168586 0.219821 0.718824
298 1 0.362157 0 0.675048
442 1 0.362157 0 0.925048
334 1 0.362157 0.25 0.675048
478 1 0.362157 0.25 0.925048
25 2 0.514572 0.0855963 0.793776
307 1 0.612157 0 0.675048
310 2 0.566843 0.0554174 0.706224
311 2 0.418586 0.0301788 0.881272
451 1 0.612157 0 0.925048
452 1 0.443922 0.0971304 0.837524
454 2 0.566843 0.0554174 0.956224
62 2 0.418586 0.219821 0.968824
63 2 0.566843 0.194583 0.8813
343 1 0.612157 0.25 0.675048
346 2 0.566843 0.305417 0.706224
347 2 0.418586 0.280179 0.881272
348 2 0.514572 0.164404 0.793748
487 1 0.612157 0.25 0.925048
489 1 0.443922 0.15287 0.75
490 2 0.566843 0.305417 0.956224
494 2 0.418586 0.219821 0.718824
293 2 0.918586 0.0301788 0.881272
434 1 0.943922 0.0971304 0.837524
44 2 0.918586 0.219821 0.968824
329 2 0.918586 0.280179 0.881272
471 1 0.943922 0.15287 0.75
476 2 0.918586 0.219821 0.718824
34 2 0.764572 0.0855963 0.793776
316 1 0.862157 0 0.675048
319 2 0.816843 0.0554174 0.706224
320 2 0.668586 0.0301788 0.881272
460 1 0.862157 0 0.925048
461 1 0.693922 0.0971304 0.837524
463 2 0.816843 0.0554174 0.956224
71 2 0.668586 0.219821 0.968824
72 2 0.816843 0.194583 0.8813
352 1 0.862157 0.25 0.675048
355 2 0.816843 0.305417 0.706224
356 2 0.668586 0.280179 0.881272
357 2 0.764572 0.164404 0.793748
496 1 0.862157 0.25 0.925048
498 1 0.693922 0.15287 0.75
499 2 0.816843 0.305417 0.956224
503 2 0.668586 0.219821 0.718824
43 2 0.0145715 0.335596 0.793776
79 2 0.0145715 0.585596 0.793776
81 2 0.0668428 0.444583 0.8813
361 1 0.112157 0.5 0.675048
364 2 0.0668428 0.555417 0.706224
366 2 0.0145715 0.414404 0.793748
505 1 0.112157 0.5 0.925048
508 2 0.0668428 0.555417 0.956224
402 2 0.0145715 0.664404 0.793748
52 2 0.264572 0.335596 0.793776
479 1 0.193922 0.34713 0.837524
88 2 0.264572 0.585596 0.793776
89 2 0.168586 0.469821 0.968824
90 2 0.316843 0.444583 0.8813
373 2 0.316843 0.555417 0.706224
374 2 0.168586 0.530179 0.881272
375 2 0.264572 0.414404 0.793748
515 1 0.193922 0.59713 0.837524
516 1 0.193922 0.40287 0.75
517 2 0.316843 0.555417 0.956224
521 2 0.168586 0.469821 0.718824
411 2 0.264572 0.664404 0.793748
552 1 0.193922 0.65287 0.75
370 1 0.362157 0.5 0.675048
514 1 0.362157 0.5 0.925048
61 2 0.514572 0.335596 0.793776
488 1 0.443922 0.34713 0.837524
97 2 0.514572 0.585596 0.793776
98 2 0.418586 0.469821 0.968824
99 2 0.566843 0.444583 0.8813
379 1 0.612157 0.5 0.675048
382 2 0.566843 0.555417 0.706224
383 2 0.418586 0.530179 0.881272
384 2 0.514572 0.414404 0.793748
523 1 0.612157 0.5 0.925048
524 1 0.443922 0.59713 0.837524
525 1 0.443922 0.40287 0.75
526 2 0.566843 0.555417 0.956224
530 2 0.418586 0.469821 0.718824
420 2 0.514572 0.664404 0.793748
561 1 0.443922 0.65287 0.75
470 1 0.943922 0.34713 0.837524
80 2 0.918586 0.469821 0.968824
365 2 0.918586 0.530179 0.881272
506 1 0.943922 0.59713 0.837524
507 1 0.943922 0.40287 0.75
512 2 0.918586 0.469821 0.718824
543 1 0.943922 0.65287 0.75
70 2 0.764572 0.335596 0.793776
497 1 0.693922 0.34713 0.837524
106 2 0.764572 0.585596 0.793776
107 2 0.668586 0.469821 0.968824
108 2 0.816843 0.444583 0.8813
388 1 0.862157 0.5 0.675048
391 2 0.816843 0.555417 0.706224
392 2 0.668586 0.530179 0.881272
393 2 0.764572 0.414404 0.793748
532 1 0.862157 0.5 0.925048
533 1 0.693922 0.59713 0.837524
534 1 0.693922 0.40287 0.75
535 2 0.816843 0.555417 0.956224
539 2 0.668586 0.469821 0.718824
429 2 0.764572 0.664404 0.793748
570 1 0.693922 0.65287 0.75
9 2 0.0668428 0.944583 0.8813
294 2 0.0145715 0.914404 0.793748
115 2 0.0145715 0.835596 0.793776
117 2 0.0668428 0.694583 0.8813
397 1 0.112157 0.75 0.675048
400 2 0.0668428 0.805417 0.706224
541 1 0.112157 0.75 0.925048
544 2 0.0668428 0.805417 0.956224
17 2 0.168586 0.969821 0.968824
18 2 0.316843 0.944583 0.8813
303 2 0.264572 0.914404 0.793748
444 1 0.193922 0.90287 0.75
449 2 0.168586 0.969821 0.718824
124 2 0.264572 0.835596 0.793776
125 2 0.168586 0.719821 0.968824
126 2 0.316843 0.694583 0.8813
409 2 0.316843 0.805417 0.706224
410 2 0.168586 0.780179 0.881272
551 1 0.193922 0.84713 0.837524
553 2 0.316843 0.805417 0.956224
557 2 0.168586 0.719821 0.718824
406 1 0.362157 0.75 0.675048
550 1 0.362157 0.75 0.925048
26 2 0.418586 0.969821 0.968824
27 2 0.566843 0.944583 0.8813
312 2 0.514572 0.914404 0.793748
453 1 0.443922 0.90287 0.75
458 2 0.418586 0.969821 0.718824
133 2 0.514572 0.835596 0.793776
134 2 0.418586 0.719821 0.968824
135 2 0.566843 0.694583 0.8813
415 1 0.612157 0.75 0.675048
418 2 0.566843 0.805417 0.706224
419 2 0.418586 0.780179 0.881272
559 1 0.612157 0.75 0.925048
560 1 0.443922 0.84713 0.837524
562 2 0.566843 0.805417 0.956224
566 2 0.418586 0.719821 0.718824
8 2 0.918586 0.969821 0.968824
435 1 0.943922 0.90287 0.75
440 2 0.918586 0.969821 0.718824
116 2 0.918586 0.719821 0.968824
401 2 0.918586 0.780179 0.881272
542 1 0.943922 0.84713 0.837524
548 2 0.918586 0.719821 0.718824
35 2 0.668586 0.969821 0.968824
36 2 0.816843 0.944583 0.8813
321 2 0.764572 0.914404 0.793748
462 1 0.693922 0.90287 0.75
467 2 0.668586 0.969821 0.718824
142 2 0.764572 0.835596 0.793776
143 2 0.668586 0.719821 0.968824
144 2 0.816843 0.694583 0.8813
424 1 0.862157 0.75 0.675048
427 2 0.816843 0.805417 0.706224
428 2 0.668586 0.780179 0.881272
568 1 0.862157 0.75 0.925048
569 1 0.693922 0.84713 0.837524
571 2 0.816843 0.805417 0.956224
575 2 0.668586 0.719821 0.718824
ITEM: TIMESTEP
5000
ITEM: NUMBER OF ATOMS
576
ITEM: BOX BOUNDS pp pp pp
-1.2933976139697219e+00 2.1878975325569698e+01
-1.2933976139697219e+00 2.1878975325569698e+01
-1.2933976139697219e+00 2.1878975325569698e+01
ITEM: ATOMS id type xs ys zs
115 2 0.124982 0.96962 0.215657
39 1 0.113423 0.903802 0.227903
112 2 0.126581 0.181407 0.267176
487 1 0.123996 0.327562 0.980399
510 2 0.14573 0.209529 0.158885
352 1 0.159833 0.228037 0.0899481
213 2 0.938229 0.0973612 0.322793
87 2 0.153295 0.266786 0.0306369
334 1 0.180791 0.170164 0.226352
26 2 0.241548 0.202445 0.275806
156 1 0.405103 0.916568 0.272642
367 2 0.466042 0.890286 0.255148
161 2 0.60083 0.318167 0.0753421
144 2 0.334951 0.180209 0.348055
301 2 0.287191 0.391691 0.319169
14 2 0.344896 0.905233 0.223601
300 1 0.285567 0.223509 0.351206
477 2 0.310673 0.289429 0.339005
265 2 0.355377 0.261189 0.0942944
467 2 0.493044 0.148156 0.0815914
451 1 0.497703 0.0865955 0.0568317
30 1 0.304953 0.171414 0.912412
528 2 0.917598 0.176365 0.097724
369 2 0.467735 0.0595502 0.122032
29 1 0.859711 0.144125 0.0787505
255 1 0.389851 0.150843 0.364684
402 2 0.644764 0.193837 0.103925
203 2 0.379623 0.900248 0.329133
60 2 0.887034 0.188231 0.253314
77 2 0.784265 0.160099 0.0677184
206 2 0.0954751 0.113459 0.035166
91 1 0.701211 0.219266 0.129328
150 2 0.455849 0.182633 0.289399
281 1 0.842034 0.983877 0.175034
256 2 0.88569 0.820472 0.264037
454 2 0.918349 0.0975444 0.2121
243 2 0.852229 0.923426 0.121877
33 2 0.0826641 0.0476248 0.141777
136 1 0.913623 0.0618343 0.145352
535 2 0.898224 0.00548713 0.173129
140 2 0.356844 0.0898695 0.389405
416 1 0.823374 0.269488 0.184028
293 2 0.719965 0.285979 0.0637636
537 2 0.756743 0.227024 0.165905
440 2 0.979287 0.0545657 0.0905875
137 1 0.93686 0.143062 0.255623
474 2 0.171187 0.110721 0.197434
545 2 1.0007 0.529853 0.285728
330 2 0.320598 0.289752 0.806278
20 1 0.595144 0.451229 0.0757532
491 2 0.593539 0.448288 0.139161
357 2 0.294256 0.296107 0.00538679
223 2 0.654252 0.419629 0.0790499
307 1 0.631875 0.43293 0.194073
157 2 0.53339 0.337718 0.178003
348 2 0.382334 0.359755 0.408673
233 2 0.446075 0.441204 0.111471
148 2 0.232639 0.394838 0.174379
421 2 0.343217 0.417232 0.153696
226 1 0.450363 0.346263 0.435107
200 1 0.304705 0.374109 0.192342
68 2 0.5304 0.462833 0.0560761
370 1 0.342088 0.352518 0.323887
571 2 0.335057 0.529011 0.958972
58 2 0.823658 0.511504 0.822075
306 2 0.620426 0.267992 0.199464
160 2 0.728452 0.507048 0.142652
62 2 0.742007 0.597717 0.9309
524 1 0.650518 0.586961 0.0597538
128 1 0.562918 0.292533 0.145562
196 2 0.642053 0.468426 0.255028
84 1 0.713018 0.452972 0.0813967
519 2 0.582431 0.572914 0.079528
224 2 0.66303 0.518918 0.0565982
209 1 0.841747 0.34933 0.902832
35 2 0.0696232 0.383062 0.984318
175 2 0.881493 0.261627 0.161927
507 1 0.959873 0.386265 0.873696
564 2 0.907793 0.498171 0.233967
242 2 0.985668 0.433595 0.170605
478 1 0.997877 0.550396 0.228029
539 2 0.975757 0.427104 0.931749
73 1 0.96553 0.644407 0.971886
40 2 0.00783337 0.749847 0.232827
513 2 0.898943 0.647258 0.94835
81 2 0.00944608 0.560077 0.127015
10 1 0.146323 0.666459 0.377063
151 2 0.172481 0.723627 0.39238
158 2 0.0475032 0.557141 0.416363
404 2 0.286097 0.341839 0.888413
180 2 0.733089 0.629626 0.15931
92 1 0.280193 0.80915 0.150675
261 2 0.270489 0.800637 0.0753941
89 2 0.414958 0.950524 0.937518
119 1 0.41971 0.464315 0.166827
211 2 0.45718 0.52685 0.168393
533 1 0.465154 0.474651 0.0561891
52 2 0.444173 0.633288 0.157961
96 2 0.807865 0.636518 0.0783089
9 2 0.605705 0.495917 0.893724
270 2 0.549717 0.680222 0.857033
515 1 0.742636 0.672761 0.910166
382 2 0.883319 0.766844 0.0464605
46 1 0.744939 0.670347 0.0789226
482 2 0.751053 0.731625 0.0560613
259 2 0.881476 0.830899 0.95771
548 2 0.887257 0.390315 0.859001
542 1 0.864161 0.530351 0.20256
496 1 0.921945 0.789552 0.997956
283 2 0.954046 0.6269 0.247807
562 2 0.695576 0.633769 0.0488143
517 2 0.891334 0.52661 0.130446
31 2 0.103354 0.667378 0.328418
45 2 0.170491 0.827395 0.264868
444 1 0.27127 0.850437 0.0313404
551 1 0.160723 0.0479343 0.177515
546 2 0.243508 0.848923 0.96487
295 2 0.0556763 0.8702 0.194474
291 1 0.0263589 0.804035 0.167036
75 1 0.457612 0.986382 0.145651
204 2 0.436745 0.800403 0.0697197
536 2 0.475014 0.901 0.0307968
505 1 0.451658 0.894105 0.967015
109 1 0.45244 0.874612 0.0953839
5 2 0.343438 0.700944 0.392972
127 1 0.545877 0.81984 0.932769
518 2 0.499493 0.860318 0.939435
241 2 0.295318 0.0812646 0.0236157
554 2 0.513839 0.951007 0.163231
278 2 0.61012 0.894223 0.2115
271 1 0.507294 0.685535 0.28625
49 2 0.50301 0.836948 0.159518
132 2 0.718783 0.860368 0.230675
272 1 0.658321 0.844275 0.239938
217 1 0.509688 0.892157 0.194952
438 2 0.560175 0.764278 0.952051
142 2 0.0367768 0.825765 0.724695
134 2 0.175361 0.691804 0.859027
198 2 0.958626 0.833436 0.139282
83 1 0.992592 0.676352 0.214593
8 2 0.984977 0.784018 0.00715129
66 1 0.828321 0.375422 0.244795
139 2 0.894508 0.358495 0.247309
282 1 0.887779 0.836645 0.159018
337 2 0.658252 0.0550035 0.313972
420 2 0.0174088 0.689092 0.14853
167 2 0.0929264 0.898742 0.297125
202 2 0.0279366 0.969321 0.407751
154 1 0.00112774 0.0761652 0.348631
395 2 0.102947 0.205549 0.614972
354 1 0.0164608 0.261751 0.398465
547 2 0.031644 0.351372 0.257454
199 1 0.0620153 0.316084 0.210945
141 2 0.998183 0.203566 0.324647
298 1 0.914673 0.268929 0.503793
471 1 0.0732223 0.119241 0.457693
558 2 0.0575881 0.186098 0.461233
439 2 0.899342 0.92234 0.451044
412 2 0.116767 0.101275 0.502033
502 2 0.228632 0.226085 0.394273
228 1 0.245271 0.207756 0.45889
511 2 0.460029 0.106971 0.827294
388 1 0.613514 0.199194 0.246504
177 2 0.461922 0.285026 0.478599
50 2 0.552904 0.210396 0.278819
64 1 0.681891 0.0882841 0.25281
214 2 0.771032 0.219256 0.526544
492 2 0.01454 0.138087 0.246055
95 2 0.646946 0.148913 0.263183
292 2 0.949933 0.257204 0.415989
65 1 0.04981 0.192843 0.262971
103 2 0.436852 0.159746 0.413907
42 2 0.0365272 0.321864 0.411717
110 1 0.0256323 0.391098 0.424601
106 2 0.055081 0.247941 0.212824
342 2 0.0222276 0.421352 0.505838
2 1 0.932815 0.57528 0.410953
182 1 0.121413 0.339866 0.364505
67 2 0.0539802 0.34495 0.690359
441 2 0.171214 0.366889 0.322213
405 2 0.0964011 0.279275 0.339265
63 2 0.192048 0.146783 0.580688
389 1 0.109633 0.538359 0.414034
221 2 0.0934809 0.405308 0.390906
386 2 0.28632 0.269841 0.495434
37 1 0.223568 0.310894 0.489613
484 2 0.492131 0.349127 0.373738
345 1 0.334424 0.521468 0.492394
17 2 0.187314 0.321256 0.434524
378 2 0.14722 0.493197 0.44174
428 2 0.33921 0.153376 0.755734
94 2 0.343771 0.468091 0.532095
356 2 0.178519 0.256576 0.517929
98 2 0.811515 0.568759 0.211665
212 2 0.682236 0.38782 0.208515
381 1 0.485692 0.231443 0.515087
387 2 0.384578 0.366869 0.259602
244 1 0.514072 0.166287 0.25554
240 2 0.261422 0.531674 0.48284
529 2 0.874307 0.432136 0.169033
538 2 0.597935 0.255045 0.598073
130 2 0.694945 0.553918 0.313169
273 1 0.929003 0.422125 0.206599
315 2 0.633093 0.428589 0.525003
540 2 0.463617 0.202207 0.590197
512 2 0.700669 0.302309 0.32011
351 2 0.0863551 0.3836 0.161043
28 1 0.0481198 0.437409 0.187619
359 2 0.062234 0.514444 0.212837
324 2 0.733951 0.397341 0.463912
390 1 0.698571 0.369038 0.292549
74 1 0.790935 0.438699 0.477102
553 2 0.945162 0.217414 0.540226
331 2 0.861465 0.390269 0.390356
51 2 0.919088 0.513061 0.408855
205 2 0.899671 0.616123 0.373267
486 2 0.971584 0.400406 0.384573
396 2 0.158544 0.597812 0.405714
126 2 0.139722 0.394173 0.618703
417 1 0.0976207 0.340809 0.634426
155 1 0.382494 0.68798 0.335987
376 2 0.518372 0.626034 0.230403
47 1 0.567307 0.512109 0.412226
162 2 0.216525 0.802488 0.759029
222 2 0.380474 0.562384 0.479077
102 1 0.482694 0.590351 0.182685
563 2 0.586293 0.535678 0.474671
304 2 0.45222 0.67299 0.335621
289 1 0.263319 0.831058 0.718549
220 2 0.237847 0.80546 0.622373
56 1 0.778286 0.578145 0.15133
229 2 0.61237 0.618916 0.599612
236 1 0.62577 0.71418 0.470136
267 2 0.501639 0.734098 0.422568
426 1 0.679299 0.487615 0.322424
323 2 0.511877 0.497143 0.37937
287 2 0.626472 0.508872 0.379263
527 2 0.793487 0.0148986 0.19474
54 2 0.779145 0.476993 0.42587
399 1 0.789124 0.511466 0.365886
504 2 0.83285 0.437554 0.52354
254 1 0.844279 0.454932 0.603747
1 1 0.828193 0.642683 0.37535
184 2 0.894017 0.509679 0.608936
114 2 0.803492 0.469301 0.312534
358 2 0.839674 0.699321 0.405992
70 2 0.825596 0.38259 0.626168
16 2 0.26608 0.86857 0.176409
401 2 0.0564629 0.769973 0.113832
552 1 0.0462233 0.707974 0.0857651
258 2 0.299247 0.752951 0.220038
159 2 0.184262 0.906043 0.579131
268 2 0.716193 0.0986404 0.194417
76 2 0.255125 0.940543 0.278151
449 2 0.199935 0.668045 0.562089
55 1 0.345343 0.751181 0.437525
23 2 0.409785 0.799554 0.428709
253 1 0.282924 0.905758 0.236644
521 2 0.335424 0.667842 0.288639
262 1 0.256733 0.840982 0.566816
377 2 0.328458 0.844384 0.741805
288 2 0.268623 0.640486 0.186961
277 2 0.609068 0.827127 0.313225
129 1 0.47391 0.83157 0.406064
6 2 0.470022 0.736248 0.248747
360 2 0.508845 0.809286 0.333657
86 2 0.61655 0.766759 0.419462
408 1 0.521094 0.0393528 0.519641
178 2 0.732627 0.752195 0.457845
425 1 0.288739 0.680701 0.235739
385 2 0.857492 0.762671 0.181495
446 2 0.858745 0.686039 0.285078
192 1 0.789484 0.716608 0.471601
189 2 0.676581 0.953206 0.336255
145 1 0.684087 0.0105132 0.363249
297 2 0.723734 0.0309124 0.414531
231 2 0.690281 0.923994 0.52045
250 2 0.880848 0.719293 0.616261
183 1 0.84536 0.749823 0.254207
153 2 0.79379 0.579906 0.377582
296 2 0.858419 0.185142 0.597781
181 1 0.897079 0.973782 0.406696
473 2 0.141319 0.931388 0.460826
465 2 0.0464536 0.0923284 0.398211
325 1 0.00807596 0.940673 0.459273
475 2 0.999866 0.0766791 0.505941
38 1 0.448606 0.919661 0.688648
266 2 0.885379 0.985952 0.339862
311 2 0.608927 0.135423 0.825587
43 2 0.874164 0.12836 0.453416
12 1 0.302407 0.104071 0.719538
53 2 0.2942 0.89979 0.561991
312 2 0.501406 0.113918 0.917452
328 2 0.124256 0.161238 0.784409
21 1 0.557604 0.0945958 0.875013
143 2 0.346618 0.141208 0.872391
179 2 0.468872 0.985887 0.830448
336 1 0.405459 0.194534 0.741527
457 2 0.325543 0.054575 0.482281
207 2 0.385107 0.117587 0.558699
170 2 0.458469 0.229364 0.728169
69 2 0.691002 0.992286 0.588546
350 2 0.652951 0.0717455 0.50219
353 1 0.686704 0.0160418 0.527094
4 2 0.455103 0.0392129 0.525503
308 1 0.387596 0.0490522 0.535907
494 2 0.56944 0.984423 0.559282
461 1 0.5935 0.223331 0.537899
500 2 0.540868 0.213338 0.499726
366 2 0.467499 0.123264 0.693706
569 1 0.291056 0.0924593 0.412177
526 2 0.289051 0.163843 0.466589
133 2 0.556591 0.0877207 0.574913
327 1 0.724884 0.189963 0.483034
248 2 0.764029 0.286945 0.618667
78 2 0.796396 0.176272 0.712495
363 1 0.811666 0.253432 0.576481
340 2 0.865956 0.288647 0.539978
299 1 0.932229 0.0746334 0.486721
18 2 0.758915 0.39116 0.276745
466 2 0.720812 0.176068 0.421715
322 2 0.24262 0.893679 0.692565
168 2 0.798233 0.323915 0.202837
195 2 0.974714 0.126422 0.841085
249 2 0.701486 0.165745 0.743616
361 1 0.820899 0.125696 0.647228
113 2 0.898335 0.231222 0.822555
506 1 0.566898 0.317101 0.637737
375 2 0.940181 0.018936 0.441183
172 1 0.0989925 0.0526237 0.583247
146 1 0.0475829 0.23342 0.622227
368 2 0.0668179 0.294856 0.59967
572 2 0.208094 0.330795 0.784809
174 1 0.202177 0.388738 0.748537
339 2 0.229103 0.384394 0.683322
470 1 0.205085 0.39887 0.594549
230 2 0.0234203 0.499385 0.83873
269 2 0.339267 0.498742 0.68544
165 1 0.162938 0.218474 0.586941
516 1 0.202678 0.504697 0.507051
104 2 0.220559 0.352811 0.53989
373 2 0.229004 0.453976 0.56254
326 1 0.493278 0.276199 0.784652
488 1 0.385198 0.499281 0.643272
508 2 0.272642 0.533219 0.803818
215 2 0.496905 0.360725 0.778832