LAMMPS (27 Jun 2024)
OMP_NUM_THREADS environment is not set. Defaulting to 1 thread. (src/comm.cpp:98)
  using 1 OpenMP thread(s) per MPI task
Loaded 1 plugins from C:\Users\nashi\AppData\Local\LAMMPS 64-bit 27Jun2024-MSMPI\plugins
units real
atom_style full

read_data ../RelaxSilica/silica-relaxed.data
Reading data file ...
  orthogonal box = (-3.4633416 2.3114326 1.4434488) to (24.048919 18.274145 19.142129)
  2 by 1 by 2 MPI processor grid
  reading atoms ...
  576 atoms
  reading velocities ...
  576 velocities
Finding 1-2 1-3 1-4 neighbors ...
  special bond factors lj:    0        0        0       
  special bond factors coul:  0        0        0       
     0 = max # of 1-2 neighbors
     0 = max # of 1-3 neighbors
     0 = max # of 1-4 neighbors
     1 = max # of special neighbors
  special bonds CPU = 0.000 seconds
  read_data CPU = 0.008 seconds

mass 1 28.0855 # Si
mass 2 15.999 # O

pair_style reaxff NULL safezone 3.0 mincap 150
pair_coeff * * ../RelaxSilica/reaxCHOFe.ff Si O
WARNING: Van der Waals parameters for element SI indicate inner wall+shielding, but earlier atoms indicate a different van der Waals method. This may cause division-by-zero errors. Keeping van der Waals setting for earlier atoms. (src/REAXFF/reaxff_ffield.cpp:249)
WARNING: Van der Waals parameters for element AL indicate inner wall+shielding, but earlier atoms indicate a different van der Waals method. This may cause division-by-zero errors. Keeping van der Waals setting for earlier atoms. (src/REAXFF/reaxff_ffield.cpp:249)
WARNING: Changed valency_val to valency_boc for X (src/REAXFF/reaxff_ffield.cpp:294)
fix myqeq all qeq/reaxff 1 0.0 10.0 1.0e-6 reaxff maxiter 400

group grpSi type 1
192 atoms in group grpSi
group grpO type 2
384 atoms in group grpO
variable qSi equal charge(grpSi)/count(grpSi)
variable qO equal charge(grpO)/count(grpO)

thermo 5
thermo_style custom step temp etotal press vol v_qSi v_qO
dump dmp all custom 100 dump.lammpstrj id type q x y z

fix myspec all reaxff/species 5 1 5 species.log element Si O
WARNING: Resetting reneighboring criteria to 'delay 0 every 5 check no' due to fix reaxff/species averaging of bond data (src/REAXFF/fix_reaxff_species.cpp:126)

fix mynvt all nvt temp 300.0 300.0 100
timestep 0.5

run 5000

CITE-CITE-CITE-CITE-CITE-CITE-CITE-CITE-CITE-CITE-CITE-CITE-CITE

Your simulation uses code contributions which should be cited:

- Type Label Framework: https://doi.org/10.1021/acs.jpcb.3c08419

@Article{Gissinger24,
 author = {Jacob R. Gissinger, Ilia Nikiforov, Yaser Afshar, Brendon Waters, Moon-ki Choi, Daniel S. Karls, Alexander Stukowski, Wonpil Im, Hendrik Heinz, Axel Kohlmeyer, and Ellad B. Tadmor},
 title = {Type Label Framework for Bonded Force Fields in LAMMPS},
 journal = {J. Phys. Chem. B},
 year =    2024,
 volume =  128,
 number =  13,
 pages =   {3282–-3297}
}

- pair reaxff command: doi:10.1016/j.parco.2011.08.005

@Article{Aktulga12,
 author = {H. M. Aktulga and J. C. Fogarty and S. A. Pandit and A. Y. Grama},
 title = {Parallel Reactive Molecular Dynamics: {N}umerical Methods and Algorithmic Techniques},
 journal = {Parallel Computing},
 year =    2012,
 volume =  38,
 number =  {4--5},
 pages =   {245--259}
}

- fix qeq/reaxff command: doi:10.1016/j.parco.2011.08.005

@Article{Aktulga12,
 author = {H. M. Aktulga and J. C. Fogarty and S. A. Pandit and A. Y. Grama},
 title = {Parallel Reactive Molecular Dynamics: {N}umerical Methods and Algorithmic Techniques},
 journal = {Parallel Computing},
 year =    2012,
 volume =  38,
 pages =   {245--259}
}

CITE-CITE-CITE-CITE-CITE-CITE-CITE-CITE-CITE-CITE-CITE-CITE-CITE

Neighbor list info ...
  update: every = 5 steps, delay = 0 steps, check = no
  max neighbors/atom: 2000, page size: 100000
  master list distance cutoff = 12
  ghost atom cutoff = 12
  binsize = 6, bins = 5 3 3
  2 neighbor lists, perpetual/occasional/extra = 2 0 0
  (1) pair reaxff, perpetual
      attributes: half, newton off, ghost
      pair build: half/bin/ghost/newtoff
      stencil: full/ghost/bin/3d
      bin: standard
  (2) fix qeq/reaxff, perpetual, copy from (1)
      attributes: half, newton off
      pair build: copy
      stencil: none
      bin: none
Per MPI rank memory allocation (min/avg/max) = 147.7 | 149.3 | 150.3 Mbytes
   Step          Temp          TotEng         Press          Volume         v_qSi           v_qO     
         0   279.2537      -85798.047      2442.4526      7772.7349      1.8669444     -0.93347222   
         5   276.1525      -85797.63      -2026.8425      7772.7349      1.8660342     -0.93301711   
        10   279.85511     -85797.562     -1752.4346      7772.7349      1.8653493     -0.93267464   
        15   295.02181     -85797.675     -3446.631       7772.7349      1.8651975     -0.93259876   
        20   298.67743     -85797.209     -5371.7847      7772.7349      1.8655696     -0.93278478   
        25   296.25755     -85797.303     -982.88235      7772.7349      1.8663154     -0.93315772   
        30   286.00658     -85797.183      5134.3363      7772.7349      1.8670416     -0.93352082   
        35   288.22962     -85797.253      3742.2788      7772.7349      1.867733      -0.93386648   
        40   297.09784     -85797.55      -490.76401      7772.7349      1.8684571     -0.93422857   
        45   304.22553     -85797.371     -1966.9237      7772.7349      1.8690666     -0.93453331   
        50   304.83151     -85797.551     -1106.9582      7772.7349      1.8698726     -0.93493629   
        55   296.40615     -85797.689      8981.7674      7772.7349      1.8705804     -0.9352902    
        60   293.72146     -85797.616      1594.79        7772.7349      1.8716723     -0.93583613   
        65   289.06903     -85797.567      5195.2475      7772.7349      1.872705      -0.93635252   
        70   298.20625     -85797.674      2542.6851      7772.7349      1.8733613     -0.93668063   
        75   310.43486     -85797.705     -2046.3286      7772.7349      1.8739456     -0.93697279   
        80   309.94521     -85797.502     -160.12117      7772.7349      1.8744826     -0.93724129   
        85   305.72744     -85797.212      3380.0716      7772.7349      1.8750448     -0.93752238   
        90   306.06435     -85797.302      565.04769      7772.7349      1.8756797     -0.93783985   
        95   308.66473     -85797.568      5143.4254      7772.7349      1.8759793     -0.93798967   
       100   315.53423     -85797.008      7925.9438      7772.7349      1.8757355     -0.93786776   
       105   321.43697     -85797.118     -544.48826      7772.7349      1.8756185     -0.93780927   
       110   319.3783      -85796.757     -2870.7961      7772.7349      1.8753816     -0.93769081   
       115   309.67257     -85796.485      2033.1473      7772.7349      1.874912      -0.93745601   
       120   299.52163     -85796.395      5415.0954      7772.7349      1.8746789     -0.93733947   
       125   298.68544     -85796.343      887.94958      7772.7349      1.874124      -0.937062     
       130   299.76906     -85796.218      3385.1867      7772.7349      1.8734866     -0.9367433    
       135   307.34194     -85796.386      3174.5047      7772.7349      1.8733708     -0.93668539   
       140   300.98696     -85796.009     -624.65851      7772.7349      1.8734959     -0.93674795   
       145   297.98609     -85795.801     -663.01321      7772.7349      1.8735668     -0.93678341   
       150   289.81608     -85795.991      6101.7714      7772.7349      1.8734679     -0.93673394   
       155   292.11361     -85795.982     -3643.8432      7772.7349      1.8737189     -0.93685947   
       160   291.69817     -85795.764      1845.3195      7772.7349      1.8737874     -0.93689368   
       165   297.02788     -85795.823      2089.8259      7772.7349      1.8739508     -0.93697538   
       170   294.72805     -85796.156      2519.1217      7772.7349      1.8744307     -0.93721535   
       175   292.75508     -85795.887      4135.0908      7772.7349      1.8750907     -0.93754533   
       180   294.10949     -85796.247      2466.2918      7772.7349      1.8757486     -0.93787428   
       185   290.70529     -85796.041      2956.705       7772.7349      1.8762602     -0.93813011   
       190   293.8066      -85795.84       1846.67        7772.7349      1.8766381     -0.93831904   
       195   287.99416     -85795.431      3542.8383      7772.7349      1.8767119     -0.93835595   
       200   289.90831     -85795.366     -1560.5662      7772.7349      1.8765933     -0.93829664   
       205   282.23205     -85794.949      10521.81       7772.7349      1.8762536     -0.93812678   
       210   283.54943     -85795.009      3145.5871      7772.7349      1.8763059     -0.93815296   
       215   279.10417     -85794.539      4990.0641      7772.7349      1.8762832     -0.93814162   
       220   280.88842     -85794.054      5043.3649      7772.7349      1.8761798     -0.9380899    
       225   284.91425     -85793.698      3467.6888      7772.7349      1.8762322     -0.93811609   
       230   291.33476     -85793.442      4018.2357      7772.7349      1.8762438     -0.9381219    
       235   293.85201     -85792.759      4300.6114      7772.7349      1.8763846     -0.93819232   
       240   298.31663     -85792.285      4605.3854      7772.7349      1.8768969     -0.93844846   
       245   299.20663     -85791.889      6739.3761      7772.7349      1.8775589     -0.93877946   
       250   299.86676     -85791.235     -381.11552      7772.7349      1.8781391     -0.93906955   
       255   303.00196     -85790.844     -1585.8686      7772.7349      1.8784385     -0.93921923   
       260   305.91197     -85790.235      5095.455       7772.7349      1.8784745     -0.93923726   
       265   306.94654     -85789.465      8659.0196      7772.7349      1.8786798     -0.93933992   
       270   305.0901      -85788.934      3677.1471      7772.7349      1.8788814     -0.93944069   
       275   296.86437     -85788.298      1495.2793      7772.7349      1.8793554     -0.9396777    
       280   293.4689      -85787.559      2552.1409      7772.7349      1.8797355     -0.93986773   
       285   294.61371     -85786.884      6593.5341      7772.7349      1.8798096     -0.93990482   
       290   294.2928      -85786.192      6035.9021      7772.7349      1.8799913     -0.93999565   
       295   297.0699      -85785.634      4107.5747      7772.7349      1.880393      -0.9401965    
       300   293.12231     -85784.18       4895.933       7772.7349      1.8808809     -0.94044043   
       305   291.24314     -85783.58       3421.5831      7772.7349      1.8814644     -0.9407322    
       310   294.97485     -85783.075      4457.7297      7772.7349      1.8818949     -0.94094747   
       315   299.23498     -85782.14       1402.2672      7772.7349      1.8819241     -0.94096203   
       320   301.88708     -85781.071      6433.0572      7772.7349      1.8816999     -0.94084995   
       325   302.75706     -85779.363      10528.345      7772.7349      1.881204      -0.940602     
       330   302.4385      -85778.189      7874.5957      7772.7349      1.8804507     -0.94022536   
       335   304.47267     -85776.527      17.024883      7772.7349      1.8792574     -0.93962872   
       340   310.1604      -85775.153      3138.9576      7772.7349      1.8775757     -0.93878787   
       345   309.43905     -85773.087      6800.4629      7772.7349      1.8756983     -0.93784917   
       350   307.51694     -85771.634      6603.7173      7772.7349      1.8737287     -0.93686435   
       355   303.77699     -85769.589     -796.20461      7772.7349      1.8719514     -0.93597568   
       360   303.67261     -85767.925     -1414.8521      7772.7349      1.8700725     -0.93503625   
       365   308.80904     -85766.231      4755.5941      7772.7349      1.8681332     -0.93406661   
       370   314.41896     -85764.629      625.2614       7772.7349      1.8665656     -0.93328278   
       375   314.34755     -85763.074     -2722.2575      7772.7349      1.8654981     -0.93274906   
       380   307.76063     -85761.379     -1479.5864      7772.7349      1.8645558     -0.93227788   
       385   307.69378     -85760.052      566.18291      7772.7349      1.8636514     -0.9318257    
       390   305.47558     -85758.339      3050.5034      7772.7349      1.8630054     -0.9315027    
       395   304.81179     -85757.143      492.93992      7772.7349      1.8624858     -0.93124291   
       400   303.04711     -85755.796     -404.55525      7772.7349      1.8620733     -0.93103667   
       405   302.22436     -85754.32       8113.9427      7772.7349      1.8618116     -0.93090582   
       410   309.18766     -85753.26      -2165.4252      7772.7349      1.8619061     -0.93095307   
       415   304.7545      -85751.888      977.6717       7772.7349      1.861926      -0.93096302   
       420   308.47259     -85750.294      7321.8462      7772.7349      1.8619897     -0.93099484   
       425   312.75894     -85749.561     -2261.06        7772.7349      1.862152      -0.931076     
       430   313.95315     -85748.618      3611.0365      7772.7349      1.8624574     -0.93122872   
       435   313.41007     -85747.65       3952.5746      7772.7349      1.8628601     -0.93143005   
       440   306.48376     -85746.477     -1886.367       7772.7349      1.8634058     -0.93170292   
       445   304.39972     -85745.729     -575.45978      7772.7349      1.8639153     -0.93195764   
       450   305.90673     -85744.735     -1776.4255      7772.7349      1.8641354     -0.93206771   
       455   314.61644     -85743.794      296.61968      7772.7349      1.8641385     -0.93206923   
       460   323.60089     -85743.054      2100.5773      7772.7349      1.8638017     -0.93190087   
       465   326.28464     -85742.063      4418.0064      7772.7349      1.8633179     -0.93165893   
       470   318.31553     -85741.191      1978.8881      7772.7349      1.8631032     -0.93155161   
       475   310.09312     -85740.004     -2612.938       7772.7349      1.8632413     -0.93162064   
       480   305.04405     -85739.364      3034.0735      7772.7349      1.8634077     -0.93170386   
       485   303.60966     -85739.075     -1304.6486      7772.7349      1.8639215     -0.93196076   
       490   299.44807     -85738.835     -2083.7863      7772.7349      1.8647513     -0.93237564   
       495   295.75738     -85738.119     -2642.5636      7772.7349      1.8658227     -0.93291135   
       500   296.60555     -85737.723      7877.2886      7772.7349      1.8671903     -0.93359517   
       505   299.04095     -85737.503      5200.6063      7772.7349      1.8691489     -0.93457445   
       510   305.54292     -85737.08      -1287.8737      7772.7349      1.8712565     -0.93562827   
       515   315.95254     -85737.136      1292.025       7772.7349      1.8730718     -0.9365359    
       520   316.99019     -85736.693      6662.3756      7772.7349      1.8750182     -0.93750912   
       525   322.59115     -85736.911      843.35274      7772.7349      1.8768538     -0.93842691   
       530   318.44159     -85736.94       4564.1812      7772.7349      1.8784591     -0.93922953   
       535   315.42287     -85736.712      6905.0209      7772.7349      1.8798371     -0.93991854   
       540   318.28628     -85736.8        1452.3911      7772.7349      1.8808673     -0.94043363   
       545   314.99732     -85736.635      4502.867       7772.7349      1.8815363     -0.94076816   
       550   310.33636     -85736.019      7152.9477      7772.7349      1.8818198     -0.94090989   
       555   304.23353     -85736.24       5254.3663      7772.7349      1.8816608     -0.94083038   
       560   300.74169     -85735.157      6282.3007      7772.7349      1.880973      -0.9404865    
       565   302.59303     -85734.571      4137.3469      7772.7349      1.8794422     -0.93972109   
       570   309.91305     -85734.149      4489.1318      7772.7349      1.8773121     -0.93865605   
       575   313.66189     -85732.971      457.16087      7772.7349      1.8746576     -0.9373288    
       580   317.84168     -85732.09      -1395.8888      7772.7349      1.8715608     -0.93578042   
       585   313.26345     -85731.216      4792.4594      7772.7349      1.8684964     -0.93424819   
       590   310.74788     -85730.303      1047.3995      7772.7349      1.8658168     -0.9329084    
       595   311.63733     -85729.616     -4611.3972      7772.7349      1.8633786     -0.93168931   
       600   315.24524     -85729.075     -5679.8103      7772.7349      1.8611836     -0.9305918    
       605   313.62179     -85728.192      1972.2917      7772.7349      1.8595612     -0.92978059   
       610   314.73143     -85727.879     -3725.9044      7772.7349      1.8584708     -0.9292354    
       615   313.39051     -85727.931     -3641.0328      7772.7349      1.8576476     -0.92882378   
       620   314.24031     -85727.994     -3226.8571      7772.7349      1.8572071     -0.92860353   
       625   321.26103     -85728.819     -353.09059      7772.7349      1.857467      -0.92873348   
       630   313.92345     -85728.348      3743.3779      7772.7349      1.8584948     -0.9292474    
       635   312.23706     -85729.213      5129.9778      7772.7349      1.8599851     -0.92999253   
       640   308.13192     -85729.588      5669.381       7772.7349      1.8619824     -0.93099122   
       645   310.60941     -85730.289     -602.16023      7772.7349      1.864263      -0.93213152   
       650   318.42241     -85731.182      1246.8909      7772.7349      1.86631       -0.93315498   
       655   315.03238     -85731.93       6191.1665      7772.7349      1.8687        -0.93435002   
       660   320.95562     -85733.079      2760.2296      7772.7349      1.8715787     -0.93578935   
       665   315.99646     -85734.265      4587.5974      7772.7349      1.8745783     -0.93728916   
       670   307.83872     -85735.424      9672.7597      7772.7349      1.8774207     -0.93871037   
       675   304.30933     -85736.377      11172.003      7772.7349      1.8802703     -0.94013516   
       680   307.71433     -85737.36       6947.9522      7772.7349      1.8829384     -0.94146918   
       685   320.03905     -85738.696      6340.6575      7772.7349      1.8851773     -0.94258863   
       690   323.72922     -85739.4        9534.8272      7772.7349      1.8867926     -0.94339629   
       695   321.87545     -85740.121      6416.4646      7772.7349      1.8880483     -0.94402417   
       700   321.22054     -85740.972      10202.977      7772.7349      1.8886269     -0.94431346   
       705   313.48335     -85741.291      13854.145      7772.7349      1.8881475     -0.94407377   
       710   312.78188     -85741.695      8326.2031      7772.7349      1.8869622     -0.94348112   
       715   315.65128     -85741.476      9465.0112      7772.7349      1.8849382     -0.9424691    
       720   323.50897     -85742.115      3995.9347      7772.7349      1.8821638     -0.9410819    
       725   317.51786     -85742          6871.2151      7772.7349      1.8795425     -0.93977126   
       730   303.12373     -85741.776     -972.8229       7772.7349      1.8771443     -0.93857214   
       735   301.2139      -85742.186     -827.53141      7772.7349      1.874359      -0.93717949   
       740   302.10758     -85742.58       4380.8723      7772.7349      1.8716073     -0.93580365   
       745   303.9823      -85741.977      6255.0584      7772.7349      1.869138      -0.93456899   
       750   310.14655     -85742.169      1420.1889      7772.7349      1.8668234     -0.9334117    
       755   309.60921     -85742.585     -547.00438      7772.7349      1.8650941     -0.93254704   
       760   305.69965     -85743.224      2009.3044      7772.7349      1.8642271     -0.93211353   
       765   304.16704     -85743.854     -900.07256      7772.7349      1.8642359     -0.93211795   
       770   303.19793     -85744.487      3899.4519      7772.7349      1.8645915     -0.93229575   
       775   312.99271     -85745.47       6728.732       7772.7349      1.8652503     -0.93262515   
       780   319.49754     -85746.31       6730.6689      7772.7349      1.8662882     -0.93314408   
       785   320.72968     -85747.545      4022.3593      7772.7349      1.8676624     -0.9338312    
       790   312.84791     -85748.211      4212.1386      7772.7349      1.868993      -0.93449648   
       795   311.65661     -85749.542     -1884.1208      7772.7349      1.8701929     -0.93509644   
       800   315.67662     -85751.007      2821.4958      7772.7349      1.8709624     -0.93548122   
       805   311.9755      -85751.694      3826.5648      7772.7349      1.8715541     -0.93577706   
       810   309.86208     -85753.234      4541.8129      7772.7349      1.8724507     -0.93622537   
       815   301.83738     -85753.922     -1009.7827      7772.7349      1.8735163     -0.93675813   
       820   292.95052     -85755.026      3436.3767      7772.7349      1.8745198     -0.93725992   
       825   294.27144     -85755.983      1236.3408      7772.7349      1.875378      -0.93768901   
       830   294.38149     -85756.505      3346.5228      7772.7349      1.875928      -0.93796402   
       835   304.27219     -85757.483      1791.6163      7772.7349      1.8762914     -0.93814568   
       840   303.68356     -85757.895      5806.1581      7772.7349      1.8762382     -0.9381191    
       845   304.75288     -85758.213      4644.1241      7772.7349      1.8760544     -0.9380272    
       850   306.00963     -85759.318      1336.9034      7772.7349      1.8758338     -0.93791689   
       855   314.88341     -85759.895      1428.1175      7772.7349      1.8753902     -0.93769512   
       860   315.52632     -85760.694      1769.8721      7772.7349      1.8750957     -0.93754785   
       865   311.23192     -85760.976      6268.827       7772.7349      1.8749798     -0.93748992   
       870   309.60408     -85761.874      5228.7808      7772.7349      1.8748471     -0.93742354   
       875   305.91123     -85762.318      4731.581       7772.7349      1.874728      -0.93736399   
       880   306.17352     -85762.804      2087.5345      7772.7349      1.8745675     -0.93728376   
       885   299.03284     -85763.187      9890.9921      7772.7349      1.8742418     -0.93712091   
       890   301.29142     -85764.034      5731.3908      7772.7349      1.8738477     -0.93692384   
       895   302.4194      -85764.456      2888.6471      7772.7349      1.8735602     -0.93678008   
       900   298.95045     -85764.479      8138.5055      7772.7349      1.8732997     -0.93664984   
       905   300.58118     -85765.071      2003.4203      7772.7349      1.8732293     -0.93661465   
       910   305.01208     -85765.952      3037.4001      7772.7349      1.8730953     -0.93654763   
       915   308.04032     -85766.198      1300.5387      7772.7349      1.8730988     -0.93654938   
       920   308.04073     -85766.851      4568.5126      7772.7349      1.8735897     -0.93679485   
       925   303.90575     -85767.526      6091.7937      7772.7349      1.8742258     -0.93711291   
       930   305.79112     -85768.195     -421.78033      7772.7349      1.8750691     -0.93753456   
       935   300.21831     -85768.821     -568.80912      7772.7349      1.875637      -0.93781851   
       940   302.64712     -85769.399      28.871777      7772.7349      1.875913      -0.93795652   
       945   307.41591     -85769.84       3701.0163      7772.7349      1.8760185     -0.93800925   
       950   303.29214     -85770.197      5238.9083      7772.7349      1.876202      -0.938101     
       955   302.01851     -85771.102      2178.7055      7772.7349      1.8764674     -0.93823369   
       960   298.61382     -85771.089      2517.5847      7772.7349      1.8766312     -0.93831559   
       965   297.33337     -85771.546      10352.575      7772.7349      1.876868      -0.938434     
       970   297.81614     -85772.059      890.30874      7772.7349      1.8777055     -0.93885274   
       975   295.58236     -85772.677     -1455.1483      7772.7349      1.8787958     -0.93939792   
       980   293.40162     -85773.059      699.51896      7772.7349      1.8795683     -0.93978416   
       985   299.25952     -85773.504      2419.1223      7772.7349      1.8803388     -0.9401694    
       990   302.6151      -85773.951      13198.417      7772.7349      1.880922      -0.940461     
       995   315.93732     -85774.606      4744.8956      7772.7349      1.8812915     -0.94064576   
      1000   317.65903     -85775.065      3895.379       7772.7349      1.8814905     -0.94074525   
      1005   314.96787     -85775.105      3502.831       7772.7349      1.881636      -0.94081798   
      1010   311.14755     -85775.459      4059.4905      7772.7349      1.881924      -0.94096198   
      1015   307.73081     -85775.598      6611.3927      7772.7349      1.8824149     -0.94120744   
      1020   312.52579     -85776.348      3761.9967      7772.7349      1.8827652     -0.94138262   
      1025   311.41741     -85776.525      3286.7902      7772.7349      1.8830285     -0.94151425   
      1030   309.12072     -85777.149      6433.4177      7772.7349      1.8837144     -0.94185719   
      1035   306.20291     -85777.413      9644.279       7772.7349      1.884538      -0.94226902   
      1040   300.39543     -85777.883      10226.987      7772.7349      1.8856137     -0.94280686   
      1045   303.6454      -85778.658      3189.1514      7772.7349      1.8866672     -0.94333361   
      1050   301.87728     -85778.986      6372.9147      7772.7349      1.8874022     -0.94370108   
      1055   305.32121     -85779.676      3313.9728      7772.7349      1.8877714     -0.94388568   
      1060   301.69172     -85779.776      12942.271      7772.7349      1.887608      -0.943804     
      1065   300.5213      -85780.204      10087.093      7772.7349      1.8870597     -0.94352985   
      1070   298.52236     -85780.128      5168.0802      7772.7349      1.8861842     -0.94309208   
      1075   302.4009      -85780.237      6935.7365      7772.7349      1.8847499     -0.94237495   
      1080   303.40603     -85780.707      3986.2807      7772.7349      1.8831796     -0.94158981   
      1085   294.98573     -85780.131      7298.927       7772.7349      1.8812543     -0.94062713   
      1090   284.25001     -85780.11       13488.291      7772.7349      1.8791121     -0.93955607   
      1095   283.72131     -85779.441      408.92992      7772.7349      1.877156      -0.93857801   
      1100   292.19553     -85779.374     -5682.4649      7772.7349      1.8752373     -0.93761867   
      1105   296.80793     -85779.159      4034.5115      7772.7349      1.8736357     -0.93681784   
      1110   300.12967     -85779.4        5209.7077      7772.7349      1.8729124     -0.93645622   
      1115   290.72841     -85779.445      4229.4091      7772.7349      1.873025      -0.93651248   
      1120   294.12305     -85779.984      1360.708       7772.7349      1.8731664     -0.93658321   
      1125   298.68327     -85779.892      1120.9303      7772.7349      1.8730537     -0.93652686   
      1130   307.86002     -85779.794      549.05683      7772.7349      1.8729001     -0.93645005   
      1135   313.24566     -85780.33       1105.354       7772.7349      1.8732659     -0.93663296   
      1140   306.21935     -85780.861      7929.3097      7772.7349      1.8744977     -0.93724886   
      1145   297.29874     -85781.18       9982.8588      7772.7349      1.8761176     -0.93805879   
      1150   295.82278     -85781.564      9461.4172      7772.7349      1.8777118     -0.93885592   
      1155   303.14239     -85782.456      7409.8284      7772.7349      1.8792383     -0.93961914   
      1160   312.26209     -85782.937      2983.0245      7772.7349      1.8805892     -0.94029462   
      1165   314.53116     -85783.634      3879.3325      7772.7349      1.8821633     -0.94108163   
      1170   301.53559     -85784.493      8727.538       7772.7349      1.8840187     -0.94200934   
      1175   290.04382     -85784.515      7180.6558      7772.7349      1.8858519     -0.94292594   
      1180   285.82609     -85785.458      5915.167       7772.7349      1.8874565     -0.94372825   
      1185   287.77442     -85786.185      11509.276      7772.7349      1.8889232     -0.94446162   
      1190   294.48552     -85786.694      4894.2693      7772.7349      1.8903872     -0.94519361   
      1195   287.70995     -85786.963      7405.148       7772.7349      1.8915272     -0.94576361   
      1200   287.50517     -85787.214      6961.0668      7772.7349      1.8919304     -0.94596518   
      1205   288.83128     -85787.224      10510.964      7772.7349      1.8916466     -0.94582331   
      1210   300.96329     -85787.068      13226.225      7772.7349      1.8906458     -0.94532291   
      1215   312.24786     -85786.846      10076.082      7772.7349      1.8892116     -0.94460579   
      1220   320.28412     -85786.591      2829.292       7772.7349      1.8879596     -0.94397981   
      1225   314.43928     -85786.403      8980.5966      7772.7349      1.8866225     -0.94331125   
      1230   300.73347     -85785.988      5052.2639      7772.7349      1.8850931     -0.94254655   
      1235   295.66776     -85785.92       8470.5378      7772.7349      1.8834095     -0.94170473   
      1240   302.26461     -85785.713      1994.1836      7772.7349      1.8814358     -0.94071789   
      1245   309.10835     -85785.768      4578.8502      7772.7349      1.8790197     -0.93950983   
      1250   306.35226     -85785.095      3909.468       7772.7349      1.8769389     -0.93846944   
      1255   300.4576      -85784.771      2367.778       7772.7349      1.8751334     -0.93756672   
      1260   291.4342      -85784.689      4105.283       7772.7349      1.8736386     -0.93681931   
      1265   294.4779      -85784.556      8598.6663      7772.7349      1.8723836     -0.93619181   
      1270   301.15488     -85784.766      1579.7593      7772.7349      1.8716553     -0.93582766   
      1275   306.47768     -85784.671      499.13764      7772.7349      1.8711615     -0.93558074   
      1280   304.37573     -85785.063      564.12096      7772.7349      1.8713026     -0.93565132   
      1285   299.02132     -85785.131      1853.4391      7772.7349      1.8718625     -0.93593127   
      1290   302.07973     -85785.483      1536.9684      7772.7349      1.8726456     -0.93632279   
      1295   301.09334     -85785.851      6196.3392      7772.7349      1.873204      -0.93660201   
      1300   306.026       -85786.269      5002.7535      7772.7349      1.8735832     -0.9367916    
      1305   302.37975     -85786.256      6063.8684      7772.7349      1.8741508     -0.93707538   
      1310   302.77493     -85787.023     -1250.1819      7772.7349      1.8747633     -0.93738165   
      1315   298.47871     -85787.367      1178.9758      7772.7349      1.8749694     -0.93748472   
      1320   298.38232     -85787.302      1662.0339      7772.7349      1.8749754     -0.93748772   
      1325   298.58442     -85787.705      5370.0482      7772.7349      1.8748129     -0.93740644   
      1330   300.25848     -85788.082      7711.6314      7772.7349      1.8746421     -0.93732105   
      1335   296.75548     -85788.227      1013.4126      7772.7349      1.8746174     -0.93730868   
      1340   292.9527      -85788.129     -171.77485      7772.7349      1.8746356     -0.93731778   
      1345   294.85195     -85788.533      4658.261       7772.7349      1.8743186     -0.93715932   
      1350   298.79606     -85788.669      6805.0203      7772.7349      1.8741966     -0.93709832   
      1355   298.64329     -85788.964      4370.8329      7772.7349      1.8743043     -0.93715217   
      1360   289.86465     -85788.988      2530.4528      7772.7349      1.8744751     -0.93723753   
      1365   282.48188     -85789.295      7567.7875      7772.7349      1.8743319     -0.93716597   
      1370   283.27248     -85789.364      6465.2991      7772.7349      1.8738519     -0.93692595   
      1375   287.55668     -85789.12       813.15376      7772.7349      1.8730408     -0.93652039   
      1380   297.42367     -85788.952      2144.4568      7772.7349      1.8722522     -0.9361261    
      1385   300.01658     -85788.703      1507.8542      7772.7349      1.8712651     -0.93563257   
      1390   299.66147     -85788.513      1057.5606      7772.7349      1.8701378     -0.93506892   
      1395   297.67122     -85788.011      6164.7485      7772.7349      1.8686458     -0.9343229    
      1400   300.65621     -85787.831      4089.7609      7772.7349      1.8674072     -0.93370358   
      1405   304.16375     -85787.742      6344.0581      7772.7349      1.866274      -0.933137     
      1410   303.2288      -85787.938      3999.5363      7772.7349      1.8655502     -0.93277508   
      1415   299.43663     -85787.894     -3530.0726      7772.7349      1.8653115     -0.93265573   
      1420   299.45369     -85788.255     -3608.5966      7772.7349      1.8656515     -0.93282577   
      1425   298.10337     -85788.434      2397.1712      7772.7349      1.8664596     -0.9332298    
      1430   303.75306     -85788.898      5322.3629      7772.7349      1.8676586     -0.93382928   
      1435   298.75773     -85789.067      9324.3308      7772.7349      1.869604      -0.93480199   
      1440   301.51262     -85790.331     -1121.523       7772.7349      1.8720656     -0.9360328    
      1445   298.60878     -85790.866      42.827072      7772.7349      1.8747425     -0.93737124   
      1450   303.09722     -85791.791     -2534.4395      7772.7349      1.8773037     -0.93865186   
      1455   302.4843      -85792.525      6680.166       7772.7349      1.8794981     -0.93974904   
      1460   311.22435     -85793.435      6331.8214      7772.7349      1.8815785     -0.94078923   
      1465   309.74218     -85793.92       6814.555       7772.7349      1.8836663     -0.94183313   
      1470   303.75274     -85794.481      4121.7615      7772.7349      1.8856471     -0.94282356   
      1475   297.46342     -85795.213      3751.0424      7772.7349      1.8869652     -0.94348262   
      1480   292.98707     -85795.541      10883.747      7772.7349      1.887496      -0.94374799   
      1485   293.9679      -85795.546      8601.515       7772.7349      1.8874705     -0.94373523   
      1490   295.48022     -85795.761      7875.3291      7772.7349      1.8868678     -0.94343388   
      1495   298.96077     -85795.689      4080.5608      7772.7349      1.8860702     -0.94303512   
      1500   296.12849     -85795.605      6521.1934      7772.7349      1.885075      -0.94253752   
      1505   295.18617     -85795.686      6678.7396      7772.7349      1.8837061     -0.94185303   
      1510   299.70048     -85795.693      1847.4092      7772.7349      1.8814869     -0.94074344   
      1515   306.28436     -85794.531      3791.0409      7772.7349      1.8788831     -0.93944157   
      1520   313.15593     -85794.261      2038.9154      7772.7349      1.8761403     -0.93807017   
      1525   306.23597     -85793.663      7054.9281      7772.7349      1.8731832     -0.93659158   
      1530   305.13846     -85793.526      2665.6563      7772.7349      1.8707561     -0.93537804   
      1535   293.85639     -85792.925     -2969.3028      7772.7349      1.8688492     -0.93442459   
      1540   289.98917     -85793.015     -3022.4272      7772.7349      1.8674668     -0.93373339   
      1545   288.37353     -85792.874     -7665.6616      7772.7349      1.8661012     -0.93305062   
      1550   286.70582     -85793.227      8302.0874      7772.7349      1.8650717     -0.93253587   
      1555   292.02971     -85793.468      92.372653      7772.7349      1.8646121     -0.93230606   
      1560   284.00207     -85793.928      2104.6489      7772.7349      1.8647834     -0.93239168   
      1565   282.15238     -85793.811      1199.4626      7772.7349      1.8653468     -0.93267342   
      1570   286.94979     -85794.513      987.02365      7772.7349      1.8662103     -0.93310515   
      1575   290.02485     -85794.639      2310.746       7772.7349      1.8670444     -0.93352219   
      1580   297.56435     -85795.029     -1200.6832      7772.7349      1.8679361     -0.93396805   
      1585   298.43613     -85795.437      2336.7351      7772.7349      1.8687124     -0.93435622   
      1590   295.35701     -85795.607      5228.7333      7772.7349      1.869529      -0.93476448   
      1595   298.96449     -85796.121      2956.1076      7772.7349      1.8704639     -0.93523197   
      1600   297.78451     -85796.524      1476.2927      7772.7349      1.8713395     -0.93566977   
      1605   302.32821     -85796.784     -3580.6465      7772.7349      1.8718286     -0.93591428   
      1610   300.11226     -85797.214     -1292.6167      7772.7349      1.8724138     -0.93620689   
      1615   292.53776     -85797.761     -481.01888      7772.7349      1.8735506     -0.9367753    
      1620   283.82785     -85798.378      2404.3427      7772.7349      1.8750794     -0.9375397    
      1625   283.39333     -85799.012      8963.863       7772.7349      1.876497      -0.93824849   
      1630   293.28827     -85799.468      2362.3655      7772.7349      1.877946      -0.93897299   
      1635   300.67416     -85800.18       1166.0617      7772.7349      1.8792607     -0.93963036   
      1640   300.23931     -85800.426     -408.78785      7772.7349      1.8805308     -0.94026542   
      1645   292.46055     -85800.83       3799.9468      7772.7349      1.8818622     -0.94093109   
      1650   290.66003     -85801.351      2707.5962      7772.7349      1.8831447     -0.94157233   
      1655   294.0458      -85801.822      4226.0389      7772.7349      1.8840634     -0.94203171   
      1660   295.68218     -85802.31       6491.7639      7772.7349      1.8845799     -0.94228994   
      1665   293.43375     -85802.217      4654.6023      7772.7349      1.884823      -0.94241152   
      1670   292.04292     -85802.474      3673.3352      7772.7349      1.8848838     -0.94244192   
      1675   288.77101     -85802.338      6066.2099      7772.7349      1.8847031     -0.94235157   
      1680   293.65694     -85802.165      6610.7293      7772.7349      1.8839418     -0.94197092   
      1685   302.98809     -85802.357      4199.41        7772.7349      1.8828183     -0.94140913   
      1690   300.7264      -85801.715      9507.9048      7772.7349      1.8817356     -0.94086781   
      1695   302.04249     -85801.79       6048.31        7772.7349      1.8810317     -0.94051587   
      1700   294.89481     -85801.39       3434.1039      7772.7349      1.8804237     -0.94021185   
      1705   298.00531     -85801.414      292.47109      7772.7349      1.8794576     -0.93972878   
      1710   298.95771     -85800.996      2280.4146      7772.7349      1.8782553     -0.93912765   
      1715   299.80338     -85801.005      3139.8504      7772.7349      1.8769503     -0.93847517   
      1720   294.4205      -85800.586      5714.8746      7772.7349      1.8758819     -0.93794096   
      1725   289.93468     -85800.589      1985.4008      7772.7349      1.8748285     -0.93741426   
      1730   291.65517     -85800.24       3073.2993      7772.7349      1.873264      -0.93663199   
      1735   293.48105     -85799.767      4924.5312      7772.7349      1.8717849     -0.93589244   
      1740   294.88055     -85799.323      3672.6769      7772.7349      1.8703546     -0.9351773    
      1745   294.15353     -85799.452      1056.0243      7772.7349      1.8693478     -0.93467388   
      1750   289.11454     -85799.191      569.71525      7772.7349      1.8686262     -0.9343131    
      1755   286.1293      -85798.96      -1715.4449      7772.7349      1.8677738     -0.93388689   
      1760   287.57652     -85798.403     -3199.468       7772.7349      1.867115      -0.9335575    
      1765   294.05539     -85798.377     -2002.4047      7772.7349      1.8666307     -0.93331535   
      1770   298.05684     -85798.498      65.071719      7772.7349      1.866533      -0.93326652   
      1775   296.32226     -85797.957     -2757.7483      7772.7349      1.8665515     -0.93327574   
      1780   295.30135     -85797.978      1613.3813      7772.7349      1.8666659     -0.93333293   
      1785   301.34538     -85797.643     -2296.6841      7772.7349      1.866748      -0.93337399   
      1790   310.87345     -85798.02       1146.8824      7772.7349      1.8667615     -0.93338076   
      1795   308.91598     -85797.231     -4108.9154      7772.7349      1.8672269     -0.93361344   
      1800   305.01336     -85797.679     -1589.7641      7772.7349      1.867865      -0.93393252   
      1805   295.21193     -85798.289      580.04564      7772.7349      1.8685772     -0.9342886    
      1810   290.95912     -85797.774     -2442.9736      7772.7349      1.8693381     -0.93466905   
      1815   289.00369     -85797.637      1697.9763      7772.7349      1.8697279     -0.93486393   
      1820   296.14463     -85797.93       5136.0371      7772.7349      1.8704123     -0.93520616   
      1825   290.611       -85797.601      8720.023       7772.7349      1.8718134     -0.9359067    
      1830   286.4471      -85798.236     -1089.0111      7772.7349      1.8738516     -0.9369258    
      1835   280.46686     -85798.206     -2139.8726      7772.7349      1.8757811     -0.93789056   
      1840   280.49907     -85798.438      8205.9875      7772.7349      1.8774271     -0.93871355   
      1845   292.1056      -85798.349      4138.1382      7772.7349      1.8790271     -0.93951353   
      1850   302.97422     -85798.406      695.05457      7772.7349      1.8805963     -0.94029815   
      1855   302.94342     -85798.434      6163.1884      7772.7349      1.8819952     -0.94099762   
      1860   302.14017     -85798.304      3692.2813      7772.7349      1.8830105     -0.94150525   
      1865   291.04015     -85797.626      15643.864      7772.7349      1.88347       -0.94173502   
      1870   295.8583      -85797.616      4051.2235      7772.7349      1.8834115     -0.94170577   
      1875   296.98467     -85796.764      6944.3542      7772.7349      1.8826973     -0.94134867   
      1880   297.29446     -85796.061      1210.2641      7772.7349      1.8817525     -0.94087627   
      1885   290.01164     -85795.711      9257.3143      7772.7349      1.8804059     -0.94020296   
      1890   287.18778     -85794.679      4504.9391      7772.7349      1.8787599     -0.93937996   
      1895   286.29114     -85793.828      7349.19        7772.7349      1.8770082     -0.9385041    
      1900   294.57598     -85792.4       -40.253894      7772.7349      1.875277      -0.93763851   
      1905   297.79717     -85791.854      1548.5934      7772.7349      1.8738899     -0.93694497   
      1910   295.59233     -85790.774      2045.3898      7772.7349      1.8725848     -0.9362924    
      1915   300.0385      -85789.74       405.32925      7772.7349      1.871456      -0.93572802   
      1920   306.39403     -85789.266      4830.135       7772.7349      1.8703024     -0.93515118   
      1925   314.21889     -85788.349     -328.10338      7772.7349      1.869658      -0.93482898   
      1930   306.68159     -85787.397      3597.7243      7772.7349      1.8696403     -0.93482016   
      1935   300.66874     -85787.311     -484.11975      7772.7349      1.8701413     -0.93507066   
      1940   291.74432     -85786.41       5165.9834      7772.7349      1.8708623     -0.93543116   
      1945   297.98886     -85786.481      5692.7072      7772.7349      1.8717881     -0.93589407   
      1950   300.98979     -85785.924      1278.9815      7772.7349      1.8730646     -0.93653232   
      1955   296.99603     -85785.844      2712.773       7772.7349      1.8747603     -0.93738017   
      1960   290.06124     -85785.502     -656.84444      7772.7349      1.8769385     -0.93846923   
      1965   286.81112     -85785.513      547.98474      7772.7349      1.8789622     -0.93948109   
      1970   294.63794     -85785.108      4225.3985      7772.7349      1.880361      -0.94018049   
      1975   308.62123     -85784.902      8064.0578      7772.7349      1.8817512     -0.94087558   
      1980   311.28325     -85784.296      7846.6948      7772.7349      1.8832463     -0.94162315   
      1985   305.50589     -85784.019      7062.5464      7772.7349      1.8846826     -0.94234128   
      1990   297.92263     -85783.509      2063.573       7772.7349      1.8861969     -0.94309845   
      1995   289.05073     -85783.419      5594.9042      7772.7349      1.8873427     -0.94367135   
      2000   287.18819     -85782.783      6567.8369      7772.7349      1.8879317     -0.94396584   
      2005   290.16477     -85782.073      1644.7778      7772.7349      1.8881441     -0.94407203   
      2010   297.01264     -85781.136      3366.823       7772.7349      1.8878009     -0.94390045   
      2015   301.57727     -85780.096      10982.141      7772.7349      1.8872219     -0.94361094   
      2020   299.32781     -85779.285      12918.967      7772.7349      1.8865625     -0.94328124   
      2025   298.78975     -85778.185      5910.3771      7772.7349      1.8858294     -0.94291469   
      2030   304.28708     -85776.882      3688.0926      7772.7349      1.8846899     -0.94234493   
      2035   308.79799     -85775.576      4811.1537      7772.7349      1.8829502     -0.94147512   
      2040   313.19063     -85774.33       6969.3256      7772.7349      1.8807992     -0.94039959   
      2045   315.2981      -85772.772      2522.4216      7772.7349      1.8786166     -0.93930829   
      2050   310.51882     -85771.846      4154.3219      7772.7349      1.8765742     -0.93828712   
      2055   299.27448     -85770.357      6525.7399      7772.7349      1.8750017     -0.93750086   
      2060   296.777       -85769.533      1896.3613      7772.7349      1.8735602     -0.93678011   
      2065   288.82672     -85768.378      6151.9688      7772.7349      1.8723659     -0.93618293   
      2070   287.59889     -85767.201     -641.74798      7772.7349      1.8714262     -0.93571309   
      2075   293.20996     -85766.447     -3257.5059      7772.7349      1.8709246     -0.9354623    
      2080   297.12635     -85765.539     -318.41513      7772.7349      1.8707246     -0.93536228   
      2085   299.42244     -85764.866      10502.352      7772.7349      1.8707798     -0.93538991   
      2090   307.1639      -85764.116      2264.1422      7772.7349      1.8712069     -0.93560343   
      2095   315.80225     -85763.749     -1582.2536      7772.7349      1.8719123     -0.93595616   
      2100   310.41287     -85762.738      4656.1983      7772.7349      1.8723944     -0.93619719   
      2105   307.25606     -85762.096      4590.1084      7772.7349      1.8727939     -0.93639697   
      2110   304.4896      -85761.501      1018.7554      7772.7349      1.8728299     -0.93641495   
      2115   307.77462     -85760.68       7835.6989      7772.7349      1.872443      -0.93622149   
      2120   312.14994     -85760.096      6840.822       7772.7349      1.8720546     -0.93602732   
      2125   309.50729     -85759.232     -1273.4932      7772.7349      1.8719209     -0.93596043   
      2130   300.0399      -85758.549     -105.856        7772.7349      1.8718186     -0.93590929   
      2135   300.07285     -85757.807      103.09066      7772.7349      1.8720169     -0.93600845   
      2140   301.84798     -85757.522      7853.8043      7772.7349      1.8720053     -0.93600263   
      2145   306.00007     -85757.025      3569.8562      7772.7349      1.8724685     -0.93623426   
      2150   300.13933     -85756.433      1657.2912      7772.7349      1.8736719     -0.93683597   
      2155   294.26705     -85756.133      261.54568      7772.7349      1.8749021     -0.93745106   
      2160   292.07756     -85755.779      11379.285      7772.7349      1.8760403     -0.93802015   
      2165   295.08712     -85755.657      4626.8163      7772.7349      1.8770342     -0.93851712   
      2170   299.48149     -85754.968     -473.49598      7772.7349      1.8777886     -0.93889431   
      2175   299.80358     -85754.393      8380.2231      7772.7349      1.8783606     -0.9391803    
      2180   298.36639     -85754.041      5981.9206      7772.7349      1.8791634     -0.9395817    
      2185   298.76497     -85753.791      2056.7172      7772.7349      1.8800935     -0.94004675   
      2190   301.58097     -85753.226      2509.1964      7772.7349      1.8806372     -0.9403186    
      2195   306.91957     -85752.872      4601.815       7772.7349      1.8808795     -0.94043975   
      2200   314.28227     -85751.897      1215.2705      7772.7349      1.880833      -0.94041652   
      2205   320.11494     -85751.297     -690.52232      7772.7349      1.8802267     -0.94011335   
      2210   319.38072     -85750.379      6280.8488      7772.7349      1.8791148     -0.93955739   
      2215   320.64119     -85749.574      6558.9165      7772.7349      1.8775924     -0.9387962    
      2220   310.61822     -85748.416      9964.1458      7772.7349      1.8759752     -0.93798761   
      2225   305.7747      -85747.444      2793.5158      7772.7349      1.874508      -0.93725398   
      2230   303.14054     -85746.846     -2749.8783      7772.7349      1.8728161     -0.93640804   
      2235   304.77972     -85746.034     -989.01851      7772.7349      1.8709098     -0.9354549    
      2240   304.0794      -85745.313      1753.9279      7772.7349      1.8691213     -0.93456063   
      2245   303.85953     -85744.418      3997.9853      7772.7349      1.8677514     -0.93387569   
      2250   306.57329     -85743.84      -3117.3481      7772.7349      1.8671202     -0.93356009   
      2255   306.07886     -85743.167     -3653.4966      7772.7349      1.8668779     -0.93343896   
      2260   304.44882     -85742.85      -2644.2547      7772.7349      1.8667147     -0.93335734   
      2265   309.70579     -85742.372      6322.8233      7772.7349      1.8667112     -0.93335562   
      2270   317.32525     -85742.454      3333.6984      7772.7349      1.8671446     -0.93357228   
      2275   315.87102     -85742.144      1928.7095      7772.7349      1.8678837     -0.93394187   
      2280   316.07519     -85742.07      -2359.6057      7772.7349      1.8690808     -0.93454042   
      2285   312.19688     -85742.209     -4246.9165      7772.7349      1.8704698     -0.93523492   
      2290   305.80129     -85742.086      1388.2893      7772.7349      1.8717954     -0.9358977    
      2295   306.03584     -85742.531      3094.482       7772.7349      1.8732411     -0.93662056   
      2300   304.95589     -85742.491      10141.162      7772.7349      1.8746878     -0.9373439    
      2305   310.49958     -85742.762      2355.3349      7772.7349      1.8762835     -0.93814175   
      2310   311.83657     -85743.373     -330.49076      7772.7349      1.8780887     -0.93904436   
      2315   310.36707     -85743.342     -683.39474      7772.7349      1.8798466     -0.93992328   
      2320   309.06148     -85743.818      2958.7687      7772.7349      1.8813348     -0.94066741   
      2325   309.37329     -85743.584      4766.0117      7772.7349      1.8820783     -0.94103917   
      2330   316.53192     -85743.883      6385.2576      7772.7349      1.8823244     -0.94116222   
      2335   321.22491     -85743.73       6924.5407      7772.7349      1.8821979     -0.94109897   
      2340   321.55555     -85743.166      3013.9597      7772.7349      1.8818183     -0.94090916   
      2345   320.26101     -85743.358      4698.96        7772.7349      1.8810872     -0.94054362   
      2350   309.55812     -85743.295      11633.693      7772.7349      1.8800095     -0.94000476   
      2355   307.67098     -85742.944      6524.8195      7772.7349      1.8789617     -0.93948084   
      2360   308.42059     -85742.428      5500.6263      7772.7349      1.8776451     -0.93882254   
      2365   311.6569      -85742.58       1796.6116      7772.7349      1.8762559     -0.93812793   
      2370   312.22452     -85742.495      1309.3701      7772.7349      1.8748547     -0.93742737   
      2375   311.28847     -85742.535      3932.933       7772.7349      1.8735891     -0.93679454   
      2380   302.44777     -85742.308      5062.5069      7772.7349      1.8725737     -0.93628685   
      2385   304.12042     -85742.807      5950.3178      7772.7349      1.8720224     -0.93601122   
      2390   301.07377     -85742.678      6375.0038      7772.7349      1.8719905     -0.93599527   
      2395   300.85419     -85742.915     -393.91008      7772.7349      1.8722616     -0.93613082   
      2400   306.28398     -85743.491     -166.35238      7772.7349      1.872596      -0.936298     
      2405   311.17634     -85743.873      3710.0965      7772.7349      1.8728432     -0.93642158   
      2410   308.93072     -85744.034      6495.7447      7772.7349      1.8733558     -0.93667791   
      2415   317.07177     -85744.578     -3333.0921      7772.7349      1.8741541     -0.93707706   
      2420   319.97276     -85745.164      885.02634      7772.7349      1.8747029     -0.93735146   
      2425   322.06094     -85745.787      1351.8604      7772.7349      1.8750612     -0.93753061   
      2430   312.27055     -85746.392      13492.731      7772.7349      1.8755551     -0.93777753   
      2435   307.34056     -85747.015      3856.5517      7772.7349      1.8761683     -0.93808415   
      2440   302.58818     -85747.967      1202.4321      7772.7349      1.8766597     -0.93832987   
      2445   301.53786     -85748.345      3912.3262      7772.7349      1.8771169     -0.93855847   
      2450   298.94481     -85749.079      11494.694      7772.7349      1.8776283     -0.93881413   
      2455   297.80516     -85749.992      8734.5704      7772.7349      1.8778717     -0.93893584   
      2460   295.73955     -85750.592      3294.2456      7772.7349      1.8778168     -0.93890842   
      2465   303.85706     -85751.074     -228.37108      7772.7349      1.8773501     -0.93867504   
      2470   308.74982     -85751.7        6099.8243      7772.7349      1.8764879     -0.93824396   
      2475   312.38467     -85752.341      8782.7273      7772.7349      1.8754165     -0.93770824   
      2480   315.28251     -85752.833      3880.9578      7772.7349      1.874458      -0.93722898   
      2485   311.64128     -85753.372      5966.0659      7772.7349      1.8734014     -0.93670069   
      2490   312.42165     -85753.984      67.576705      7772.7349      1.8722262     -0.93611312   
      2495   309.98965     -85754.409      710.14882      7772.7349      1.8709512     -0.93547558   
      2500   306.7741      -85755.458      3529.5973      7772.7349      1.8697584     -0.9348792    
      2505   309.70104     -85755.972      3446.1692      7772.7349      1.8687141     -0.93435706   
      2510   310.44624     -85757.019      3390.7073      7772.7349      1.8680459     -0.93402294   
      2515   306.51338     -85757.802      9094.1693      7772.7349      1.8677081     -0.93385406   
      2520   311.46625     -85759.363      665.99519      7772.7349      1.867696      -0.93384801   
      2525   315.17135     -85760.729     -1598.0855      7772.7349      1.8679355     -0.93396776   
      2530   306.61609     -85761.787      8476.3801      7772.7349      1.8684958     -0.93424789   
      2535   301.38888     -85763.578      1032.1859      7772.7349      1.8692308     -0.9346154    
      2540   294.95232     -85765.376      4036.8904      7772.7349      1.8699716     -0.93498578   
      2545   301.87207     -85766.97       2616.7917      7772.7349      1.8704195     -0.93520977   
      2550   308.82669     -85768.408      1596.1552      7772.7349      1.870702      -0.93535098   
      2555   304.82761     -85770.231      8039.0921      7772.7349      1.8715297     -0.93576485   
      2560   290.83985     -85771.659      2897.3608      7772.7349      1.8726351     -0.93631754   
      2565   281.37731     -85773.417      5942.7823      7772.7349      1.8732915     -0.93664577   
      2570   289.07768     -85775.006      5575.4176      7772.7349      1.8736485     -0.93682425   
      2575   301.57926     -85776.793      6802.2085      7772.7349      1.8739547     -0.93697737   
      2580   305.06299     -85778.186      1979.2456      7772.7349      1.8745959     -0.93729795   
      2585   303.4265      -85779.828      2029.9535      7772.7349      1.8753246     -0.93766229   
      2590   296.45243     -85781.737      5534.2292      7772.7349      1.8762427     -0.93812135   
      2595   288.9485      -85783.13       8817.5638      7772.7349      1.8772901     -0.93864505   
      2600   287.40161     -85784.61       5650.095       7772.7349      1.8784283     -0.93921414   
      2605   292.16141     -85786.655     -1212.2645      7772.7349      1.8796126     -0.9398063    
      2610   287.5559      -85787.893      171.75094      7772.7349      1.8805391     -0.94026957   
      2615   285.23406     -85789.425      1586.2858      7772.7349      1.8811194     -0.94055968   
      2620   286.22856     -85790.383      5766.1973      7772.7349      1.881242      -0.940621     
      2625   296.03912     -85791.705      12812.31       7772.7349      1.8811668     -0.94058338   
      2630   305.591       -85792.57       3041.4935      7772.7349      1.8812952     -0.94064759   
      2635   307.70066     -85793.688      4730.8461      7772.7349      1.8813791     -0.94068954   
      2640   309.15946     -85795.286      9165.1852      7772.7349      1.8814258     -0.9407129    
      2645   307.72711     -85796.257      8104.7145      7772.7349      1.8816925     -0.94084627   
      2650   302.49396     -85797.199     -552.53701      7772.7349      1.8818015     -0.94090076   
      2655   300.82163     -85798.224      1800.1994      7772.7349      1.8814157     -0.94070784   
      2660   298.90442     -85798.929      2148.4877      7772.7349      1.8806564     -0.94032821   
      2665   298.91625     -85799.483      6541.1329      7772.7349      1.8797185     -0.93985927   
      2670   298.3165      -85800.611      4801.5792      7772.7349      1.8787536     -0.93937679   
      2675   294.11663     -85801.086      317.34774      7772.7349      1.8778814     -0.93894068   
      2680   291.3978      -85801.628      2096.0685      7772.7349      1.8770738     -0.93853688   
      2685   294.26612     -85802.149      2060.0931      7772.7349      1.8760886     -0.93804432   
      2690   294.45592     -85802.823      1748.2686      7772.7349      1.8751033     -0.93755166   
      2695   286.60845     -85803.399      4093.6842      7772.7349      1.8746608     -0.93733042   
      2700   280.29252     -85803.687     -1575.0672      7772.7349      1.8744714     -0.93723572   
      2705   285.36875     -85804.142      388.37477      7772.7349      1.8744287     -0.93721433   
      2710   296.05863     -85804.725     -1149.535       7772.7349      1.8746486     -0.93732428   
      2715   299.88767     -85805.261     -324.00575      7772.7349      1.8753618     -0.93768088   
      2720   295.30779     -85805.879      6275.8214      7772.7349      1.8765446     -0.93827232   
      2725   296.85907     -85806.75       2526.9616      7772.7349      1.8780789     -0.93903944   
      2730   302.99442     -85807.176      421.41656      7772.7349      1.8792416     -0.9396208    
      2735   312.97494     -85807.973      2568.2637      7772.7349      1.880379      -0.94018949   
      2740   315.91822     -85808.72      -1903.0194      7772.7349      1.8814084     -0.94070421   
      2745   302.50759     -85809.275      5899.6241      7772.7349      1.8824963     -0.94124816   
      2750   287.63232     -85809.855      4734.1918      7772.7349      1.8836013     -0.94180067   
      2755   281.32679     -85810.548      6290.6975      7772.7349      1.8844803     -0.94224013   
      2760   284.80692     -85811.053      1710.5094      7772.7349      1.8851561     -0.94257806   
      2765   294.00215     -85811.351      5096.0205      7772.7349      1.8852838     -0.9426419    
      2770   298.99332     -85811.501      11357.685      7772.7349      1.8854038     -0.94270189   
      2775   297.21676     -85811.637      6295.1183      7772.7349      1.8853503     -0.94267517   
      2780   295.16789     -85811.931      3847.3755      7772.7349      1.885396      -0.94269798   
      2785   294.71021     -85812.228      2299.7155      7772.7349      1.8851312     -0.94256558   
      2790   295.41172     -85811.984      2794.9671      7772.7349      1.8842393     -0.94211966   
      2795   297.76412     -85811.734      6041.787       7772.7349      1.8828861     -0.94144307   
      2800   299.07304     -85811.692      3972.1569      7772.7349      1.8812229     -0.94061145   
      2805   296.23877     -85811.184      2164.1548      7772.7349      1.8795177     -0.93975884   
      2810   294.33176     -85810.931      340.30764      7772.7349      1.8773608     -0.93868038   
      2815   292.16461     -85810.625      4304.6634      7772.7349      1.875057      -0.93752848   
      2820   292.89355     -85809.617      1846.2528      7772.7349      1.872881      -0.9364405    
      2825   291.46737     -85809.104      39.450247      7772.7349      1.8706495     -0.93532473   
      2830   293.14411     -85809.286      6602.3534      7772.7349      1.8684723     -0.93423615   
      2835   300.09429     -85808.278      159.32024      7772.7349      1.8667567     -0.93337834   
      2840   299.73085     -85807.88       3624.8687      7772.7349      1.8651267     -0.93256335   
      2845   299.47438     -85807.753     -651.04282      7772.7349      1.8636964     -0.93184821   
      2850   302.00082     -85807.529     -2962.9179      7772.7349      1.8627913     -0.93139565   
      2855   297.10645     -85807.693     -4089.5387      7772.7349      1.8627351     -0.93136756   
      2860   286.85764     -85807.765      2107.1185      7772.7349      1.8632945     -0.93164727   
      2865   280.83318     -85808.037     -261.98777      7772.7349      1.8642322     -0.93211612   
      2870   284.27485     -85808.406     -463.0209       7772.7349      1.8653948     -0.93269741   
      2875   286.21601     -85808.461      1603.4289      7772.7349      1.8667192     -0.9333596    
      2880   291.08352     -85808.958      6019.5552      7772.7349      1.8683199     -0.93415997   
      2885   292.27153     -85809.32       5098.5652      7772.7349      1.8704107     -0.93520534   
      2890   292.92214     -85810.06       355.6511       7772.7349      1.8729846     -0.93649228   
      2895   290.55636     -85810.042     -1344.5329      7772.7349      1.8754375     -0.93771874   
      2900   290.07719     -85810.521      1377.8931      7772.7349      1.8775357     -0.93876785   
      2905   291.22761     -85811.013      4664.6132      7772.7349      1.8794256     -0.93971281   
      2910   284.9637      -85811.153      10458.796      7772.7349      1.8814033     -0.94070167   
      2915   284.65105     -85811.802      3132.9389      7772.7349      1.8832656     -0.9416328    
      2920   280.64934     -85811.544      195.79474      7772.7349      1.8846646     -0.94233228   
      2925   282.40155     -85811.165      5016.5214      7772.7349      1.8851778     -0.94258891   
      2930   288.52419     -85810.956      7636.2648      7772.7349      1.8847736     -0.94238681   
      2935   301.03393     -85810.277      4646.7339      7772.7349      1.8836774     -0.94183868   
      2940   298.96803     -85809.453      3279.3395      7772.7349      1.8821466     -0.94107331   
      2945   299.81985     -85808.323     -260.12786      7772.7349      1.8804346     -0.94021731   
      2950   293.88074     -85807.461      8067.6663      7772.7349      1.8782704     -0.93913521   
      2955   291.20038     -85806.817      7626.6645      7772.7349      1.8760653     -0.93803264   
      2960   287.05656     -85805.891      7314.6285      7772.7349      1.873862      -0.93693102   
      2965   286.45835     -85805.009      1718.1549      7772.7349      1.8718041     -0.93590203   
      2970   284.47807     -85804.261      5549.5579      7772.7349      1.8698671     -0.93493357   
      2975   293.72808     -85803.374     -4154.7636      7772.7349      1.8681492     -0.93407458   
      2980   299.17414     -85802.747      1973.4566      7772.7349      1.8667512     -0.93337562   
      2985   300.80136     -85801.378     -1418.7969      7772.7349      1.865911      -0.9329555    
      2990   300.33196     -85801.363     -176.67242      7772.7349      1.8653318     -0.93266589   
      2995   298.16915     -85800.681      2144.1059      7772.7349      1.8651168     -0.93255839   
      3000   292.15008     -85799.925     -474.34647      7772.7349      1.8652922     -0.9326461    
      3005   291.76074     -85800.055     -2298.8515      7772.7349      1.8655532     -0.93277661   
      3010   288.0761      -85799.532     -2619.4839      7772.7349      1.8658571     -0.93292855   
      3015   289.02632     -85799.251      5039.129       7772.7349      1.8662955     -0.93314774   
      3020   295.94976     -85799.018      2965.2773      7772.7349      1.8669451     -0.93347253   
      3025   296.68369     -85798.476      461.01879      7772.7349      1.8680541     -0.93402704   
      3030   292.3695      -85798.216     -3346.9291      7772.7349      1.8695701     -0.93478506   
      3035   288.5372      -85798.486     -201.75559      7772.7349      1.8711486     -0.93557431   
      3040   278.22303     -85797.916      4546.7458      7772.7349      1.8725084     -0.93625422   
      3045   282.29665     -85797.515     -605.11364      7772.7349      1.8733581     -0.93667906   
      3050   294.6307      -85797.051     -252.68855      7772.7349      1.8737892     -0.9368946    
      3055   303.38691     -85796.37       682.46544      7772.7349      1.8742109     -0.93710547   
      3060   302.63729     -85795.65      -218.13112      7772.7349      1.8749612     -0.93748062   
      3065   300.34459     -85795.683      1065.1982      7772.7349      1.8759613     -0.93798063   
      3070   292.67162     -85794.97       4348.7836      7772.7349      1.8770841     -0.93854205   
      3075   290.51093     -85794.593      4785.5956      7772.7349      1.8780936     -0.93904678   
      3080   287.56148     -85793.938      6677.9916      7772.7349      1.8789018     -0.93945089   
      3085   293.59256     -85793.839      2594.756       7772.7349      1.8799049     -0.93995247   
      3090   294.11073     -85793.062      6279.1423      7772.7349      1.8811068     -0.94055339   
      3095   291.27645     -85792.514      12606.977      7772.7349      1.882589      -0.94129451   
      3100   294.83473     -85792.45       5358.8671      7772.7349      1.8842889     -0.94214447   
      3105   298.19914     -85792.273      6309.6991      7772.7349      1.8857097     -0.94285484   
      3110   304.50664     -85791.634      1378.8465      7772.7349      1.886963      -0.94348152   
      3115   305.75417     -85791.093      1782.8648      7772.7349      1.8875003     -0.94375013   
      3120   308.65146     -85790.419      5856.6517      7772.7349      1.8874252     -0.9437126    
      3125   299.58983     -85789.556      12265.757      7772.7349      1.8868949     -0.94344745   
      3130   295.97388     -85788.645      2410.9437      7772.7349      1.8862529     -0.94312645   
      3135   288.26683     -85787.072      6182.808       7772.7349      1.8851097     -0.94255485   
      3140   292.95525     -85786.602      2772.187       7772.7349      1.8838615     -0.94193076   
      3145   288.99757     -85786.18       5627.7219      7772.7349      1.882737      -0.94136849   
      3150   289.31131     -85784.789      3262.5851      7772.7349      1.881739      -0.9408695    
      3155   297.13149     -85783.911     -208.47248      7772.7349      1.8806576     -0.9403288    
      3160   301.09988     -85782.524      3705.6621      7772.7349      1.8794329     -0.93971643   
      3165   304.89839     -85781.49       6274.9551      7772.7349      1.878321      -0.93916051   
      3170   300.61969     -85780.746      6097.1721      7772.7349      1.8774656     -0.93873279   
      3175   294.68899     -85779.642     -1972.9882      7772.7349      1.8766671     -0.93833357   
      3180   292.44072     -85778.548     -1692.4558      7772.7349      1.875619      -0.93780949   
      3185   297.02084     -85777.33       2272.1203      7772.7349      1.8742998     -0.93714989   
      3190   305.15623     -85776.22       3682.693       7772.7349      1.8731582     -0.9365791    
      3195   309.19452     -85775.558      1173.6381      7772.7349      1.8724144     -0.93620721   
      3200   300.44731     -85774.504     -1339.6426      7772.7349      1.8720618     -0.9360309    
      3205   297.06149     -85773.965      621.07748      7772.7349      1.8717547     -0.93587737   
      3210   300.98487     -85773.308      4883.6666      7772.7349      1.8714212     -0.93571059   
      3215   300.31511     -85772.305      4185.3238      7772.7349      1.8713888     -0.93569442   
      3220   303.02308     -85771.793     -1889.0692      7772.7349      1.8715211     -0.93576054   
      3225   301.66082     -85771.167      732.52129      7772.7349      1.8716128     -0.93580641   
      3230   295.36863     -85770.322      9271.9942      7772.7349      1.872045      -0.9360225    
      3235   299.73857     -85770.198      7066.2428      7772.7349      1.872776      -0.93638798   
      3240   295.0373      -85769.685      3906.9107      7772.7349      1.8735604     -0.93678019   
      3245   294.32722     -85769.162      7219.8862      7772.7349      1.874014      -0.937007     
      3250   304.38589     -85768.591      1877.9285      7772.7349      1.8742446     -0.93712228   
      3255   302.02624     -85767.9        7018.1745      7772.7349      1.8744581     -0.93722905   
      3260   301.67847     -85767.357      4114.3237      7772.7349      1.8750248     -0.93751241   
      3265   299.68908     -85767.105      4392.5117      7772.7349      1.8756166     -0.93780828   
      3270   295.25191     -85766.861      4855.6677      7772.7349      1.8762239     -0.93811197   
      3275   299.63096     -85766.155      2215.3966      7772.7349      1.8766075     -0.93830374   
      3280   312.22757     -85765.543      4153.7318      7772.7349      1.8765307     -0.93826535   
      3285   320.39606     -85765.043      5793.062       7772.7349      1.8764463     -0.93822317   
      3290   316.77732     -85764.658      1330.667       7772.7349      1.8768772     -0.93843859   
      3295   302.86475     -85764.363     -1693.9872      7772.7349      1.8776032     -0.93880158   
      3300   293.48546     -85763.866      2252.904       7772.7349      1.877753      -0.93887651   
      3305   300.07429     -85763.39       5368.8302      7772.7349      1.8773135     -0.93865673   
      3310   308.54705     -85762.918      8883.303       7772.7349      1.8767165     -0.93835827   
      3315   305.47376     -85762.123      10764.797      7772.7349      1.876415      -0.93820749   
      3320   306.64527     -85761.927      2406.1307      7772.7349      1.8763605     -0.93818025   
      3325   305.18439     -85761.33       1729.8236      7772.7349      1.8761136     -0.93805681   
      3330   304.03713     -85760.694      5713.3706      7772.7349      1.875339      -0.93766951   
      3335   315.01949     -85759.978     -106.88202      7772.7349      1.8744798     -0.93723988   
      3340   314.83558     -85759.507     -1306.1457      7772.7349      1.8735176     -0.93675878   
      3345   318.26466     -85759.327      5296.2451      7772.7349      1.872252      -0.93612602   
      3350   309.3165      -85758.56       6345.3214      7772.7349      1.8710683     -0.93553415   
      3355   295.96625     -85757.883      2568.1414      7772.7349      1.8701369     -0.93506844   
      3360   296.56318     -85757.509     -2088.2796      7772.7349      1.8690645     -0.93453224   
      3365   290.70916     -85757.076      6055.5467      7772.7349      1.8678803     -0.93394017   
      3370   299.37087     -85756.755     -419.53709      7772.7349      1.8669698     -0.93348491   
      3375   297.53521     -85756.33       2629.0228      7772.7349      1.8664586     -0.93322931   
      3380   292.47424     -85756.469      3262.3752      7772.7349      1.8665365     -0.93326823   
      3385   290.06527     -85756.096      3892.8187      7772.7349      1.8670553     -0.93352767   
      3390   297.57108     -85756.056      3708.2938      7772.7349      1.8678135     -0.93390676   
      3395   305.76551     -85756.191      3787.8593      7772.7349      1.8687619     -0.93438094   
      3400   312.31957     -85756.271      1999.1508      7772.7349      1.8700631     -0.93503156   
      3405   313.08509     -85756.525      1628.9761      7772.7349      1.8715957     -0.93579786   
      3410   309.14844     -85756.664      9911.1786      7772.7349      1.8728417     -0.93642085   
      3415   310.52877     -85757.153      431.42507      7772.7349      1.8743843     -0.93719215   
      3420   307.81635     -85757.135      3604.5387      7772.7349      1.8759345     -0.93796726   
      3425   309.11039     -85757.375      3016.9472      7772.7349      1.8771527     -0.93857634   
      3430   309.77426     -85757.498      10572.035      7772.7349      1.87807       -0.93903498   
      3435   308.84821     -85757.595      8705.2235      7772.7349      1.8788014     -0.93940069   
      3440   309.28825     -85758.149      5665.7974      7772.7349      1.8793929     -0.93969643   
      3445   306.3583      -85758.348      6754.8926      7772.7349      1.8801259     -0.94006297   
      3450   308.84973     -85758.229      3426.6951      7772.7349      1.8810087     -0.94050434   
      3455   311.68865     -85758.621      4687.7256      7772.7349      1.8820323     -0.94101615   
      3460   314.87917     -85759.178      7587.4001      7772.7349      1.8833911     -0.94169554   
      3465   307.38231     -85759.48       6025.6021      7772.7349      1.8851741     -0.94258704   
      3470   298.36867     -85759.884      3962.9157      7772.7349      1.8870282     -0.9435141    
      3475   302.0964      -85760.614      5363.0559      7772.7349      1.8883519     -0.94417596   
      3480   312.3901      -85761.13       4046.7314      7772.7349      1.8890806     -0.94454029   
      3485   314.26792     -85761.084      7002.7393      7772.7349      1.8896688     -0.94483438   
      3490   311.40358     -85761.481      9017.9079      7772.7349      1.8902137     -0.94510686   
      3495   306.73315     -85761.798      4535.7999      7772.7349      1.8906639     -0.94533195   
      3500   302.32271     -85761.926      6162.972       7772.7349      1.8908801     -0.94544006   
      3505   305.24789     -85761.933      5366.7022      7772.7349      1.8906436     -0.94532182   
      3510   306.36211     -85761.735      16203.036      7772.7349      1.8897695     -0.94488473   
      3515   310.57988     -85761.565      8402.5293      7772.7349      1.888435      -0.94421749   
      3520   306.9773      -85761.372      6894.1078      7772.7349      1.8869774     -0.94348872   
      3525   302.32468     -85761.191      5225.9785      7772.7349      1.8855334     -0.94276671   
      3530   302.87272     -85761.413      3994.4378      7772.7349      1.8840935     -0.94204674   
      3535   307.17533     -85760.966      1563.5444      7772.7349      1.8820623     -0.94103116   
      3540   316.64901     -85760.933      10038.888      7772.7349      1.8797541     -0.93987705   
      3545   316.24909     -85760.565      10458.441      7772.7349      1.8777459     -0.93887296   
      3550   316.02267     -85760.441      2975.6254      7772.7349      1.8761358     -0.93806792   
      3555   310.50019     -85760.392      3026.7175      7772.7349      1.8746049     -0.93730244   
      3560   308.87364     -85760.082     -544.98717      7772.7349      1.8728252     -0.93641259   
      3565   316.83436     -85760.288     -4575.3149      7772.7349      1.8709583     -0.93547913   
      3570   317.55455     -85760.021     -3949.8947      7772.7349      1.8691228     -0.93456142   
      3575   309.14264     -85759.971     -21.021828      7772.7349      1.867406      -0.93370301   
      3580   300.57165     -85760.09       3345.9927      7772.7349      1.8659447     -0.93297234   
      3585   299.35553     -85760.232     -1161.1922      7772.7349      1.8648596     -0.93242982   
      3590   299.66523     -85760.183      938.23748      7772.7349      1.8642711     -0.93213554   
      3595   300.18628     -85760.73       595.75349      7772.7349      1.864223      -0.93211149   
      3600   300.66236     -85761.376     -2036.8651      7772.7349      1.8645459     -0.93227297   
      3605   296.9987      -85761.652     -2763.8398      7772.7349      1.8649572     -0.93247858   
      3610   296.38135     -85762.154      987.12585      7772.7349      1.8652196     -0.9326098    
      3615   307.28165     -85762.81      -840.22433      7772.7349      1.865649      -0.93282451   
      3620   312.9808      -85762.774     -547.42797      7772.7349      1.8664772     -0.93323859   
      3625   318.92954     -85763.795      315.18531      7772.7349      1.8676447     -0.93382237   
      3630   308.38569     -85764.542     -1203.1647      7772.7349      1.8691572     -0.93457858   
      3635   295.97153     -85764.804      3291.2508      7772.7349      1.8706576     -0.93532882   
      3640   296.93544     -85765.68       1298.2103      7772.7349      1.8719658     -0.93598288   
      3645   297.09097     -85766.339      7542.3981      7772.7349      1.8730667     -0.93653333   
      3650   310.60209     -85767.284      2116.0443      7772.7349      1.8741695     -0.93708473   
      3655   312.73756     -85767.768     -485.44247      7772.7349      1.8752918     -0.9376459    
      3660   308.87413     -85768.487     -3093.4816      7772.7349      1.8764566     -0.93822831   
      3665   300.86098     -85769.168      2816.9314      7772.7349      1.8772387     -0.93861937   
      3670   302.31365     -85769.628      6341.8844      7772.7349      1.877516      -0.93875801   
      3675   300.53565     -85769.667      9651.1215      7772.7349      1.8773613     -0.93868064   
      3680   303.54309     -85769.884      2938.9999      7772.7349      1.876976      -0.93848802   
      3685   299.49044     -85769.988      3351.2304      7772.7349      1.8764602     -0.93823008   
      3690   297.14115     -85770.511     -2174.7163      7772.7349      1.8762838     -0.9381419    
      3695   294.12262     -85770.684      3614.1722      7772.7349      1.8760287     -0.93801433   
      3700   292.44641     -85770.865      10722.341      7772.7349      1.8757068     -0.93785341   
[...]
     29090   295.19861     -84443.706     -110.20624      12453.864      1.8066404     -0.90332018   
     29095   299.03395     -84444.072     -1947.0255      12454.836      1.8061792     -0.90308962   
     29100   307.01629     -84445.419     -2059.3318      12455.808      1.805938      -0.90296901   
     29105   304.35858     -84446.133     -1287.631       12456.779      1.8059698     -0.90298489   
     29110   307.55757     -84447.018     -1126.2267      12457.751      1.8064887     -0.90324435   
     29115   307.22602     -84448.02       151.19733      12458.722      1.8073463     -0.90367315   
     29120   305.81605     -84449.53       3459.349       12459.694      1.8083751     -0.90418755   
     29125   302.3754      -84450.659     -2769.7731      12460.666      1.8096285     -0.90481423   
     29130   296.92575     -84452.05      -2578.8283      12461.637      1.8107983     -0.90539916   
     29135   288.68227     -84452.576     -382.68684      12462.609      1.8115926     -0.90579628   
     29140   297.42298     -84453.837     -2731.0299      12463.58       1.8120597     -0.90602984   
     29145   306.6949      -84454.767     -3018.5657      12464.552      1.8120556     -0.90602779   
     29150   307.5895      -84455.572     -2001.205       12465.524      1.8118648     -0.90593239   
     29155   302.30429     -84456.708     -1919.5846      12466.495      1.8113945     -0.90569723   
     29160   293.21862     -84457.149     -204.98527      12467.467      1.8106773     -0.90533864   
     29165   289.29361     -84457.454     -2551.247       12468.438      1.8096589     -0.90482946   
     29170   294.6858      -84458.396     -6201.5675      12469.41       1.8083536     -0.9041768    
     29175   299.70857     -84458.966     -5809.3195      12470.381      1.8065809     -0.90329044   
     29180   299.72212     -84458.888     -3960.7079      12471.353      1.8044209     -0.90221047   
     29185   293.63829     -84459.26      -433.61535      12472.325      1.802526      -0.90126301   
     29190   293.11248     -84459.906     -5290.4386      12473.296      1.8009499     -0.90047494   
     29195   285.52927     -84460.467     -923.85361      12474.268      1.7995696     -0.8997848    
     29200   281.31448     -84460.386     -1269.6971      12475.239      1.7984715     -0.89923573   
     29205   281.12524     -84461.081     -6409.7903      12476.211      1.7977253     -0.89886266   
     29210   281.38909     -84461.765     -1312.8333      12477.183      1.7971523     -0.89857614   
     29215   293.77417     -84462.296     -3121.4587      12478.154      1.7972178     -0.89860888   
     29220   294.3415      -84463.543     -2852.6311      12479.126      1.7982306     -0.8991153    
     29225   293.14516     -84464.379     -3895.1831      12480.097      1.8002736     -0.90013678   
     29230   288.66913     -84466.027     -1655.5033      12481.069      1.803068      -0.90153401   
     29235   291.63446     -84467.428     -4596.8262      12482.041      1.8064484     -0.90322418   
     29240   293.52385     -84468.738     -4236.9738      12483.012      1.8100228     -0.9050114    
     29245   304.90405     -84470.179     -3375.0274      12483.984      1.8133778     -0.90668888   
     29250   308.34237     -84471.636     -1538.2009      12484.955      1.8164582     -0.90822908   
     29255   301.92835     -84472.61      -3363.4421      12485.927      1.8193295     -0.90966473   
     29260   297.44302     -84473.788      1253.4829      12486.899      1.8211631     -0.91058154   
     29265   293.167       -84474.721      2472.7946      12487.87       1.8222772     -0.91113858   
     29270   298.65952     -84475.487     -1493.1142      12488.842      1.8226569     -0.91132845   
     29275   295.54587     -84476.038      1378.5865      12489.813      1.8222961     -0.91114805   
     29280   292.34215     -84476.337     -1070.6716      12490.785      1.8215455     -0.91077273   
     29285   285.92742     -84476.605     -19.128647      12491.757      1.8204884     -0.9102442    
     29290   289.8128      -84477.055     -1957.5485      12492.728      1.8189852     -0.9094926    
     29295   289.70571     -84476.936      514.79017      12493.7        1.8169891     -0.90849455   
     29300   290.46979     -84476.938     -1469.8631      12494.671      1.8147087     -0.90735437   
     29305   296.47244     -84476.494      551.88813      12495.643      1.8125668     -0.90628338   
     29310   294.92078     -84476.605     -3464.1591      12496.614      1.8105198     -0.90525988   
     29315   286.07851     -84476.511     -1156.4171      12497.586      1.8084388     -0.90421938   
     29320   283.55705     -84476.275     -2776.2449      12498.558      1.806022      -0.90301098   
     29325   289.04211     -84475.621     -4509.5971      12499.529      1.8034227     -0.90171134   
     29330   289.43818     -84475.356     -1693.2117      12500.501      1.8006323     -0.90031615   
     29335   287.92973     -84475.012     -1964.6873      12501.472      1.7984222     -0.8992111    
     29340   280.90698     -84474.84       376.53972      12502.444      1.7969056     -0.89845279   
     29345   290.83299     -84475.145     -3269.9228      12503.416      1.7955439     -0.89777195   
     29350   287.02605     -84475.086     -1616.0086      12504.387      1.7946295     -0.89731477   
     29355   292.39678     -84474.718     -4719.5994      12505.359      1.7942602     -0.8971301    
     29360   305.94424     -84475.659     -7286.1352      12506.33       1.7942585     -0.89712923   
     29365   307.47572     -84475.755     -4744.6311      12507.302      1.7945931     -0.89729657   
     29370   302.43969     -84475.786     -5377.095       12508.274      1.7950396     -0.89751982   
     29375   300.74352     -84475.861     -2775.8528      12509.245      1.7956792     -0.8978396    
     29380   302.39768     -84476.471     -2114.095       12510.217      1.7965308     -0.89826541   
     29385   300.34626     -84477.016     -4948.732       12511.188      1.7978276     -0.89891382   
     29390   295.7272      -84477.509     -4082.1217      12512.16       1.7993531     -0.89967657   
     29395   290.89502     -84477.847     -1294.6113      12513.132      1.8010202     -0.90051008   
     29400   293.39493     -84478.669     -5816.7002      12514.103      1.8028733     -0.90143667   
     29405   290.7573      -84479.411     -2193.4673      12515.075      1.8051381     -0.90256907   
     29410   294.33        -84480.363     -5122.6679      12516.046      1.8078965     -0.90394824   
     29415   299.01013     -84481.339     -2014.1831      12517.018      1.810521      -0.90526051   
     29420   296.93886     -84482.011     -1924.6871      12517.989      1.8129873     -0.90649365   
     29425   297.42316     -84482.807     -3276.2105      12518.961      1.8153918     -0.90769588   
     29430   296.13329     -84483.513     -2261.96        12519.933      1.8176684     -0.90883421   
     29435   299.13929     -84484.023     -2631.0234      12520.904      1.8193839     -0.90969194   
     29440   301.5149      -84484.638     -4436.4044      12521.876      1.8205996     -0.91029979   
     29445   296.03017     -84485.013     -949.86137      12522.847      1.8210841     -0.91054205   
     29450   288.29352     -84484.564     -2825.6571      12523.819      1.8209326     -0.91046628   
     29455   285.49345     -84484.432      235.40896      12524.791      1.8199039     -0.90995197   
     29460   287.14374     -84484.355     -2118.9527      12525.762      1.8182249     -0.90911245   
     29465   294.32375     -84483.733     -1021.617       12526.734      1.8160434     -0.90802172   
     29470   297.22646     -84482.657     -710.34057      12527.705      1.813301      -0.90665051   
     29475   303.27858     -84482.551     -2502.1016      12528.677      1.8104263     -0.90521315   
     29480   294.20397     -84481.397     -1520.8514      12529.649      1.8075054     -0.90375268   
     29485   291.43728     -84481.18      -2557.8019      12530.62       1.8049299     -0.90246497   
     29490   290.15147     -84480.943     -3722.4189      12531.592      1.8023352     -0.9011676    
     29495   293.45407     -84480.024     -5896.8796      12532.563      1.7997129     -0.89985645   
     29500   299.54362     -84479.17      -4840.3026      12533.535      1.7974358     -0.89871791   
     29505   289.96296     -84478.572     -3966.8871      12534.507      1.7955344     -0.89776718   
     29510   288.79125     -84477.87      -349.92249      12535.478      1.7940268     -0.89701339   
     29515   291.43251     -84477.924     -4206.7808      12536.45       1.7930301     -0.89651504   
     29520   298.04838     -84477.343     -4139.1876      12537.421      1.792415      -0.89620752   
     29525   305.29489     -84477.696     -7611.3977      12538.393      1.7923596     -0.89617979   
     29530   308.78566     -84477.208     -6144.8687      12539.365      1.7928592     -0.89642958   
     29535   308.89242     -84477.369     -5204.1176      12540.336      1.7937395     -0.89686976   
     29540   306.11334     -84477.874     -3924.1311      12541.308      1.7953504     -0.89767518   
     29545   306.09848     -84478.473     -3232.4856      12542.279      1.7972621     -0.89863107   
     29550   299.74762     -84479.121     -2333.6044      12543.251      1.7991594     -0.89957971   
     29555   298.75389     -84479.602     -4315.1679      12544.222      1.8013552     -0.90067762   
     29560   298.52899     -84480.004     -2908.3386      12545.194      1.8036355     -0.90181773   
     29565   299.36804     -84480.789     -1327.7557      12546.166      1.8061053     -0.90305263   
     29570   298.50871     -84481.426     -2064.1839      12547.137      1.8090513     -0.90452564   
     29575   287.38394     -84482.154     -2321.3444      12548.109      1.8121937     -0.90609685   
     29580   279.49989     -84482.719     -515.47025      12549.08       1.815071      -0.90753549   
     29585   278.2698      -84483.326     -1586.0809      12550.052      1.8177449     -0.90887246   
     29590   279.01855     -84483.822      2537.7355      12551.024      1.8201907     -0.91009534   
     29595   284.12437     -84484.675     -1838.2791      12551.995      1.822477      -0.91123852   
     29600   283.6119      -84484.676     -1437.3662      12552.967      1.8243963     -0.91219814   
     29605   288.6314      -84484.928      2361.0943      12553.938      1.8259789     -0.91298947   
     29610   291.34735     -84484.862      2135.3981      12554.91       1.8271277     -0.91356385   
     29615   297.19678     -84485.024      2322.0942      12555.882      1.8277802     -0.9138901    
     29620   297.82228     -84485.03      -595.4444       12556.853      1.827894      -0.913947     
     29625   303.01717     -84484.571      138.24446      12557.825      1.8271623     -0.91358117   
     29630   300.72895     -84483.798      706.60084      12558.796      1.8256707     -0.91283534   
     29635   302.98273     -84483.313     -314.02214      12559.768      1.8242414     -0.91212072   
     29640   294.98429     -84482.597     -1306.8264      12560.74       1.822554      -0.91127699   
     29645   291.47635     -84481.609      929.6878       12561.711      1.8204463     -0.91022314   
     29650   284.84666     -84480.479      2135.2252      12562.683      1.818136      -0.90906801   
     29655   291.79832     -84479.652      2001.4387      12563.654      1.8156637     -0.90783184   
     29660   298.36916     -84478.945      401.1021       12564.626      1.8130913     -0.90654567   
     29665   307.9058      -84478.117      589.23101      12565.597      1.8105611     -0.90528053   
     29670   307.2904      -84477.204      3401.9573      12566.569      1.8083647     -0.90418235   
     29675   303.36837     -84476.156     -1472.2357      12567.541      1.8065656     -0.90328278   
     29680   304.32419     -84475.26      -2961.0176      12568.512      1.8047052     -0.90235259   
     29685   302.58017     -84474.075     -1928.2909      12569.484      1.802576      -0.90128798   
     29690   309.21784     -84473.607     -1803.9352      12570.455      1.8004645     -0.90023224   
     29695   309.09138     -84473.032     -3509.9376      12571.427      1.7987356     -0.8993678    
     29700   298.19967     -84472.454     -1882.3388      12572.399      1.7973972     -0.89869859   
     29705   288.80587     -84471.705     -1621.4451      12573.37       1.7963942     -0.89819712   
     29710   291.83938     -84471.269     -3973.9663      12574.342      1.7957128     -0.89785638   
     29715   287.39023     -84470.683     -4237.3511      12575.313      1.7951553     -0.89757766   
     29720   287.77531     -84470.277     -1455.1293      12576.285      1.7949236     -0.89746181   
     29725   284.44559     -84470.309     -1910.5155      12577.257      1.7952933     -0.89764664   
     29730   281.52193     -84469.891     -4622.8589      12578.228      1.7960039     -0.89800195   
     29735   282.43656     -84469.545     -3160.2828      12579.2        1.7969185     -0.89845927   
     29740   294.59557     -84469.425     -5290.8039      12580.171      1.7979564     -0.89897822   
     29745   305.52816     -84469.583     -3342.6812      12581.143      1.7991955     -0.89959775   
     29750   311.13857     -84469.159     -3484.1743      12582.115      1.8008813     -0.90044067   
     29755   307.58079     -84469.189     -4869.3716      12583.086      1.8030304     -0.9015152    
     29760   302.64616     -84469.308     -2842.3303      12584.058      1.8050903     -0.90254517   
     29765   306.74035     -84469.271     -756.52083      12585.029      1.8065945     -0.90329727   
     29770   315.47529     -84469.151     -3760.0171      12586.001      1.8079008     -0.90395039   
     29775   315.17235     -84468.776     -590.5943       12586.973      1.808882      -0.904441     
     29780   313.99385     -84468.65      -4198.1721      12587.944      1.8098539     -0.90492697   
     29785   305.96052     -84468.347     -671.71796      12588.916      1.8107618     -0.9053809    
     29790   290.98884     -84468.494     -718.98646      12589.887      1.8117139     -0.90585693   
     29795   290.03942     -84468.242     -39.560359      12590.859      1.8125736     -0.90628679   
     29800   286.51229     -84468.092     -3950.9         12591.83       1.8130026     -0.90650132   
     29805   291.63401     -84468.135     -2301.5934      12592.802      1.8131031     -0.90655154   
     29810   296.03549     -84467.571     -3286.98        12593.774      1.8129105     -0.90645526   
     29815   294.89091     -84467.216     -1496.1944      12594.745      1.8126561     -0.90632807   
     29820   289.78139     -84466.551     -2785.085       12595.717      1.8124196     -0.90620979   
     29825   288.51442     -84466         -1738.4509      12596.688      1.8118726     -0.90593629   
     29830   286.47116     -84465.444     -4126.816       12597.66       1.8110976     -0.90554881   
     29835   297.61929     -84464.771     -3127.4233      12598.632      1.810252      -0.905126     
     29840   304.95584     -84464.244     -2180.2396      12599.603      1.8095306     -0.90476529   
     29845   302.77982     -84463.706     -3746.7846      12600.575      1.8092765     -0.90463823   
     29850   305.13149     -84463.287     -2172.6862      12601.546      1.809246      -0.904623     
     29855   299.16616     -84462.665     -1655.4661      12602.518      1.8094945     -0.90474726   
     29860   296.75714     -84462.155     -1464.0973      12603.49       1.8098828     -0.9049414    
     29865   300.84332     -84461.922     -1620.8038      12604.461      1.809881      -0.90494052   
     29870   300.17454     -84462.009     -591.89459      12605.433      1.8098388     -0.90491939   
     29875   290.06769     -84460.805     -177.83366      12606.404      1.8098458     -0.90492291   
     29880   287.95327     -84460.514     -663.59916      12607.376      1.8096572     -0.90482861   
     29885   288.5091      -84460.197     -2118.8355      12608.348      1.8092351     -0.90461754   
     29890   288.96986     -84459.125     -3383.2281      12609.319      1.8088267     -0.90441337   
     29895   291.12794     -84458.69      -3540.1865      12610.291      1.8085987     -0.90429937   
     29900   288.69764     -84458.365     -1860.5523      12611.262      1.8087146     -0.9043573    
     29905   285.6127      -84457.818     -4732.9575      12612.234      1.8090231     -0.90451154   
     29910   282.13076     -84456.819     -3955.2742      12613.205      1.8094617     -0.90473083   
     29915   283.06364     -84456.325     -983.25732      12614.177      1.8100907     -0.90504533   
     29920   288.1493      -84456.006     -864.32037      12615.149      1.8111094     -0.9055547    
     29925   288.90652     -84455.429     -3533.3608      12616.12       1.8123729     -0.90618644   
     29930   294.1682      -84454.904     -600.12735      12617.092      1.8134287     -0.90671435   
     29935   293.01872     -84454.712      314.26325      12618.063      1.8142935     -0.90714677   
     29940   295.01183     -84453.835     -2098.7256      12619.035      1.8148432     -0.90742159   
     29945   300.58041     -84452.898     -2540.989       12620.007      1.8145805     -0.90729023   
     29950   310.71476     -84451.999      2168.7881      12620.978      1.8138064     -0.9069032    
     29955   314.92881     -84450.792     -19.276236      12621.95       1.8129212     -0.90646058   
     29960   310.71924     -84449.617     -1485.6215      12622.921      1.8119783     -0.90598917   
     29965   305.90279     -84449.065     -723.47672      12623.893      1.8108102     -0.90540508   
     29970   293.91611     -84447.529      2024.9116      12624.865      1.8095903     -0.90479513   
     29975   298.53044     -84447.074     -1591.8995      12625.836      1.8083801     -0.90419003   
     29980   297.92242     -84446.233      1246.4666      12626.808      1.8072159     -0.90360796   
     29985   298.36283     -84445.098     -4193.3519      12627.779      1.8067728     -0.9033864    
     29990   294.49953     -84444.447     -2210.2413      12628.751      1.8066868     -0.90334339   
     29995   294.66146     -84444.163     -105.89074      12629.723      1.806931      -0.90346549   
     30000   298.06457     -84443.766     -5238.9935      12630.694      1.8077656     -0.90388278   
Loop time of 991.434 on 4 procs for 25000 steps with 576 atoms

Performance: 1.089 ns/day, 22.032 hours/ns, 25.216 timesteps/s, 14.524 katom-step/s
13.2% CPU use with 4 MPI tasks x 1 OpenMP threads

MPI task timing breakdown:
Section |  min time  |  avg time  |  max time  |%varavg| %total
---------------------------------------------------------------
Pair    | 666.75     | 721.96     | 779.31     | 192.8 | 72.82
Bond    | 0.007948   | 0.0086157  | 0.008906   |   0.4 |  0.00
Neigh   | 50.401     | 51.525     | 52.709     |  14.1 |  5.20
Comm    | 46.32      | 103.68     | 159.01     | 509.6 | 10.46
Output  | 0.31685    | 0.3347     | 0.37117    |   3.7 |  0.03
Modify  | 112.54     | 113.7      | 114.69     |   8.5 | 11.47
Other   |            | 0.2334     |            |       |  0.02

Nlocal:            144 ave         235 max          55 min
Histogram: 2 0 0 0 0 0 0 0 0 2
Nghost:        2603.25 ave        2788 max        2429 min
Histogram: 2 0 0 0 0 0 0 0 0 2
Neighs:        54539.2 ave       93691 max       16203 min
Histogram: 2 0 0 0 0 0 0 0 0 2

Total # of neighbors = 218157
Ave neighs/atom = 378.74479
Ave special neighs/atom = 0
Neighbor list builds = 5000
Dangerous builds not checked

write_data silica-deformed.data
System init for write_data ...
Total wall time: 0:21:10
