ITEM: TIMESTEP
0
ITEM: NUMBER OF ATOMS
690
ITEM: BOX BOUNDS ff ff ff
-4.0000000000000000e+01 4.0000000000000000e+01
-4.0000000000000000e+01 4.0000000000000000e+01
-4.0000000000000000e+01 4.0000000000000000e+01
ITEM: ATOMS id type xs ys zs
24 1 0.435471 0.494192 0.191827
1 1 0.439341 0.477234 0.195176
25 1 0.436251 0.488431 0.161679
2 1 0.441626 0.471889 0.165029
3 1 0.444381 0.466769 0.181778
5 1 0.455226 0.45317 0.185127
4 1 0.447584 0.461917 0.15163
6 1 0.459604 0.449345 0.15498
8 1 0.464307 0.445928 0.171728
9 1 0.479979 0.438381 0.175078
10 1 0.485583 0.436835 0.191827
11 1 0.491303 0.435797 0.161679
12 1 0.502907 0.435275 0.195176
13 1 0.508697 0.435797 0.165029
14 1 0.514417 0.436835 0.181778
16 1 0.530702 0.442946 0.185127
15 1 0.520021 0.438381 0.15163
17 1 0.535693 0.445928 0.15498
19 1 0.540396 0.449345 0.171728
20 1 0.552416 0.461917 0.175078
21 1 0.555619 0.466769 0.191827
27 1 0.562455 0.482764 0.195176
22 1 0.558374 0.471889 0.161679
30 1 0.563749 0.488431 0.165029
32 1 0.564529 0.494192 0.181778
44 1 0.497093 0.564725 0.171728
43 1 0.479979 0.561619 0.175078
42 1 0.474536 0.559576 0.191827
40 1 0.459604 0.550655 0.195176
41 1 0.469298 0.557054 0.161679
39 1 0.455226 0.54683 0.165029
38 1 0.451209 0.542628 0.181778
36 1 0.441626 0.528111 0.185127
37 1 0.447584 0.538083 0.15163
34 1 0.439341 0.522766 0.15498
26 1 0.437545 0.517236 0.171728
23 1 0.43521 0.5 0.175078
33 1 0.56479 0.5 0.15163
28 1 0.562455 0.517236 0.15498
55 1 0.560659 0.522766 0.171728
54 1 0.552416 0.538083 0.175078
53 1 0.548791 0.542628 0.191827
51 1 0.535693 0.554072 0.195176
52 1 0.544774 0.54683 0.161679
50 1 0.530702 0.557054 0.165029
49 1 0.525464 0.559576 0.181778
47 1 0.508697 0.564203 0.185127
48 1 0.520021 0.561619 0.15163
45 1 0.502907 0.564725 0.15498
31 1 0.563749 0.511569 0.185127
130 1 0.435471 0.494192 0.285619
81 1 0.436251 0.488431 0.255471
133 1 0.437545 0.482764 0.27222
112 1 0.444381 0.466769 0.275569
83 1 0.437545 0.482764 0.225324
56 1 0.439341 0.477234 0.242072
58 1 0.447584 0.461917 0.245422
114 1 0.451209 0.457372 0.262171
116 1 0.464307 0.445928 0.26552
117 1 0.469298 0.442946 0.282269
118 1 0.485583 0.436835 0.285619
57 1 0.441626 0.471889 0.211925
59 1 0.451209 0.457372 0.215275
60 1 0.455226 0.45317 0.232023
61 1 0.469298 0.442946 0.235373
63 1 0.474536 0.440424 0.252121
65 1 0.491303 0.435797 0.255471
120 1 0.497093 0.435275 0.27222
7 1 0.459604 0.449345 0.201876
62 1 0.474536 0.440424 0.205226
64 1 0.479979 0.438381 0.221974
66 1 0.497093 0.435275 0.225324
113 1 0.447584 0.461917 0.292318
115 1 0.459604 0.449345 0.295668
67 1 0.502907 0.435275 0.242072
69 1 0.520021 0.438381 0.245422
123 1 0.525464 0.440424 0.262171
125 1 0.540396 0.449345 0.26552
126 1 0.544774 0.45317 0.282269
127 1 0.555619 0.466769 0.285619
68 1 0.508697 0.435797 0.211925
70 1 0.525464 0.440424 0.215275
71 1 0.530702 0.442946 0.232023
72 1 0.544774 0.45317 0.235373
74 1 0.548791 0.457372 0.252121
76 1 0.558374 0.471889 0.255471
129 1 0.560659 0.477234 0.27222
137 1 0.564529 0.494192 0.275569
18 1 0.535693 0.445928 0.201876
73 1 0.548791 0.457372 0.205226
75 1 0.552416 0.461917 0.221974
77 1 0.560659 0.477234 0.225324
84 1 0.562455 0.482764 0.242072
85 1 0.563749 0.488431 0.211925
122 1 0.520021 0.438381 0.292318
124 1 0.535693 0.445928 0.295668
149 1 0.497093 0.564725 0.26552
148 1 0.491303 0.564203 0.282269
147 1 0.474536 0.559576 0.285619
99 1 0.491303 0.564203 0.235373
98 1 0.485583 0.563165 0.252121
95 1 0.469298 0.557054 0.255471
145 1 0.464307 0.554072 0.27222
143 1 0.451209 0.542628 0.275569
97 1 0.485583 0.563165 0.205226
96 1 0.479979 0.561619 0.221974
94 1 0.464307 0.554072 0.225324
93 1 0.459604 0.550655 0.242072
91 1 0.447584 0.538083 0.245422
141 1 0.444381 0.533231 0.262171
134 1 0.437545 0.517236 0.26552
132 1 0.436251 0.511569 0.282269
92 1 0.455226 0.54683 0.211925
90 1 0.444381 0.533231 0.215275
89 1 0.441626 0.528111 0.232023
82 1 0.436251 0.511569 0.235373
80 1 0.435471 0.505808 0.252121
35 1 0.439341 0.522766 0.201876
79 1 0.435471 0.505808 0.205226
78 1 0.43521 0.5 0.221974
142 1 0.447584 0.538083 0.292318
140 1 0.439341 0.522766 0.295668
138 1 0.564529 0.505808 0.262171
159 1 0.560659 0.522766 0.26552
158 1 0.558374 0.528111 0.282269
157 1 0.548791 0.542628 0.285619
86 1 0.563749 0.511569 0.232023
110 1 0.558374 0.528111 0.235373
109 1 0.555619 0.533231 0.252121
106 1 0.544774 0.54683 0.255471
155 1 0.540396 0.550655 0.27222
153 1 0.525464 0.559576 0.275569
29 1 0.562455 0.517236 0.201876
108 1 0.555619 0.533231 0.205226
107 1 0.552416 0.538083 0.221974
105 1 0.540396 0.550655 0.225324
104 1 0.535693 0.554072 0.242072
102 1 0.520021 0.561619 0.245422
151 1 0.514417 0.563165 0.262171
103 1 0.530702 0.557054 0.211925
101 1 0.514417 0.563165 0.215275
100 1 0.508697 0.564203 0.232023
46 1 0.502907 0.564725 0.201876
88 1 0.56479 0.5 0.245422
87 1 0.564529 0.505808 0.215275
139 1 0.56479 0.5 0.292318
135 1 0.562455 0.517236 0.295668
152 1 0.520021 0.561619 0.292318
150 1 0.502907 0.564725 0.295668
237 1 0.436251 0.488431 0.396159
239 1 0.437545 0.482764 0.366012
214 1 0.439341 0.477234 0.38276
216 1 0.447584 0.461917 0.38611
184 1 0.435471 0.494192 0.332514
160 1 0.439341 0.477234 0.335864
161 1 0.441626 0.471889 0.352613
163 1 0.451209 0.457372 0.355962
218 1 0.455226 0.45317 0.372711
220 1 0.469298 0.442946 0.376061
221 1 0.474536 0.440424 0.392809
222 1 0.491303 0.435797 0.396159
131 1 0.436251 0.488431 0.302367
111 1 0.441626 0.471889 0.305717
162 1 0.444381 0.466769 0.322465
164 1 0.455226 0.45317 0.325815
165 1 0.459604 0.449345 0.342564
167 1 0.474536 0.440424 0.345913
169 1 0.479979 0.438381 0.362662
223 1 0.497093 0.435275 0.366012
166 1 0.464307 0.445928 0.312416
168 1 0.479979 0.438381 0.315766
170 1 0.485583 0.436835 0.332514
119 1 0.491303 0.435797 0.302367
225 1 0.502907 0.435275 0.38276
227 1 0.520021 0.438381 0.38611
171 1 0.502907 0.435275 0.335864
172 1 0.508697 0.435797 0.352613
174 1 0.525464 0.440424 0.355962
229 1 0.530702 0.442946 0.372711
231 1 0.544774 0.45317 0.376061
232 1 0.548791 0.457372 0.392809
233 1 0.558374 0.471889 0.396159
121 1 0.508697 0.435797 0.305717
173 1 0.514417 0.436835 0.322465
175 1 0.530702 0.442946 0.325815
176 1 0.535693 0.445928 0.342564
178 1 0.548791 0.457372 0.345913
180 1 0.552416 0.461917 0.362662
234 1 0.560659 0.477234 0.366012
242 1 0.562455 0.482764 0.38276
177 1 0.540396 0.449345 0.312416
179 1 0.552416 0.461917 0.315766
181 1 0.555619 0.466769 0.332514
187 1 0.562455 0.482764 0.335864
188 1 0.563749 0.488431 0.352613
128 1 0.558374 0.471889 0.302367
136 1 0.563749 0.488431 0.305717
190 1 0.564529 0.494192 0.322465
255 1 0.491303 0.564203 0.376061
254 1 0.485583 0.563165 0.392809
253 1 0.469298 0.557054 0.396159
201 1 0.485583 0.563165 0.345913
200 1 0.479979 0.561619 0.362662
251 1 0.464307 0.554072 0.366012
250 1 0.459604 0.550655 0.38276
248 1 0.447584 0.538083 0.38611
202 1 0.497093 0.564725 0.312416
199 1 0.479979 0.561619 0.315766
198 1 0.474536 0.559576 0.332514
197 1 0.459604 0.550655 0.335864
196 1 0.455226 0.54683 0.352613
194 1 0.444381 0.533231 0.355962
246 1 0.441626 0.528111 0.372711
238 1 0.436251 0.511569 0.376061
236 1 0.435471 0.505808 0.392809
146 1 0.469298 0.557054 0.302367
144 1 0.455226 0.54683 0.305717
195 1 0.451209 0.542628 0.322465
193 1 0.441626 0.528111 0.325815
192 1 0.439341 0.522766 0.342564
185 1 0.435471 0.505808 0.345913
183 1 0.43521 0.5 0.362662
186 1 0.437545 0.517236 0.312416
182 1 0.43521 0.5 0.315766
243 1 0.563749 0.511569 0.372711
265 1 0.558374 0.528111 0.376061
264 1 0.555619 0.533231 0.392809
263 1 0.544774 0.54683 0.396159
212 1 0.555619 0.533231 0.345913
211 1 0.552416 0.538083 0.362662
261 1 0.540396 0.550655 0.366012
259 1 0.520021 0.561619 0.38611
213 1 0.560659 0.522766 0.312416
210 1 0.552416 0.538083 0.315766
209 1 0.548791 0.542628 0.332514
208 1 0.535693 0.554072 0.335864
207 1 0.530702 0.557054 0.352613
205 1 0.514417 0.563165 0.355962
257 1 0.508697 0.564203 0.372711
156 1 0.544774 0.54683 0.302367
154 1 0.530702 0.557054 0.305717
206 1 0.525464 0.559576 0.322465
204 1 0.508697 0.564203 0.325815
203 1 0.502907 0.564725 0.342564
191 1 0.564529 0.505808 0.355962
189 1 0.563749 0.511569 0.325815
288 1 0.435471 0.494192 0.426306
240 1 0.437545 0.482764 0.412908
215 1 0.444381 0.466769 0.416257
217 1 0.451209 0.457372 0.402858
219 1 0.464307 0.445928 0.406208
273 1 0.469298 0.442946 0.422957
275 1 0.485583 0.436835 0.426306
224 1 0.497093 0.435275 0.412908
340 1 0.435471 0.494192 0.473202
316 1 0.439341 0.477234 0.476552
318 1 0.441626 0.471889 0.493301
320 1 0.451209 0.457372 0.49665
289 1 0.436251 0.488431 0.443055
267 1 0.441626 0.471889 0.446405
268 1 0.444381 0.466769 0.463153
270 1 0.455226 0.45317 0.466503
321 1 0.459604 0.449345 0.483251
323 1 0.474536 0.440424 0.486601
269 1 0.447584 0.461917 0.433006
271 1 0.459604 0.449345 0.436355
272 1 0.464307 0.445928 0.453104
274 1 0.479979 0.438381 0.456454
325 1 0.485583 0.436835 0.473202
276 1 0.491303 0.435797 0.443055
226 1 0.514417 0.436835 0.416257
228 1 0.525464 0.440424 0.402858
230 1 0.540396 0.449345 0.406208
283 1 0.544774 0.45317 0.422957
285 1 0.555619 0.466769 0.426306
235 1 0.560659 0.477234 0.412908
244 1 0.564529 0.494192 0.416257
327 1 0.502907 0.435275 0.476552
329 1 0.508697 0.435797 0.493301
331 1 0.525464 0.440424 0.49665
277 1 0.508697 0.435797 0.446405
278 1 0.514417 0.436835 0.463153
280 1 0.530702 0.442946 0.466503
333 1 0.535693 0.445928 0.483251
335 1 0.548791 0.457372 0.486601
279 1 0.520021 0.438381 0.433006
281 1 0.535693 0.445928 0.436355
282 1 0.540396 0.449345 0.453104
284 1 0.552416 0.461917 0.456454
337 1 0.555619 0.466769 0.473202
344 1 0.562455 0.482764 0.476552
347 1 0.563749 0.488431 0.493301
286 1 0.558374 0.471889 0.443055
293 1 0.563749 0.488431 0.446405
295 1 0.564529 0.494192 0.463153
256 1 0.497093 0.564725 0.406208
304 1 0.491303 0.564203 0.422957
302 1 0.474536 0.559576 0.426306
252 1 0.464307 0.554072 0.412908
249 1 0.451209 0.542628 0.416257
247 1 0.444381 0.533231 0.402858
241 1 0.437545 0.517236 0.406208
290 1 0.436251 0.511569 0.422957
361 1 0.485583 0.563165 0.486601
305 1 0.497093 0.564725 0.453104
303 1 0.479979 0.561619 0.456454
359 1 0.474536 0.559576 0.473202
356 1 0.459604 0.550655 0.476552
355 1 0.455226 0.54683 0.493301
353 1 0.444381 0.533231 0.49665
301 1 0.469298 0.557054 0.443055
300 1 0.455226 0.54683 0.446405
299 1 0.451209 0.542628 0.463153
298 1 0.441626 0.528111 0.466503
351 1 0.439341 0.522766 0.483251
341 1 0.435471 0.505808 0.486601
297 1 0.439341 0.522766 0.436355
291 1 0.437545 0.517236 0.453104
287 1 0.43521 0.5 0.456454
245 1 0.564529 0.505808 0.402858
266 1 0.560659 0.522766 0.406208
314 1 0.558374 0.528111 0.422957
312 1 0.548791 0.542628 0.426306
262 1 0.540396 0.550655 0.412908
260 1 0.525464 0.559576 0.416257
258 1 0.514417 0.563165 0.402858
346 1 0.562455 0.517236 0.483251
373 1 0.555619 0.533231 0.486601
296 1 0.56479 0.5 0.433006
292 1 0.562455 0.517236 0.436355
315 1 0.560659 0.522766 0.453104
313 1 0.552416 0.538083 0.456454
371 1 0.548791 0.542628 0.473202
368 1 0.535693 0.554072 0.476552
367 1 0.530702 0.557054 0.493301
365 1 0.514417 0.563165 0.49665
311 1 0.544774 0.54683 0.443055
310 1 0.530702 0.557054 0.446405
309 1 0.525464 0.559576 0.463153
307 1 0.508697 0.564203 0.466503
363 1 0.502907 0.564725 0.483251
308 1 0.520021 0.561619 0.433006
306 1 0.502907 0.564725 0.436355
349 1 0.564529 0.505808 0.49665
294 1 0.563749 0.511569 0.466503
394 1 0.435471 0.494192 0.566994
396 1 0.436251 0.488431 0.536847
398 1 0.437545 0.482764 0.553595
374 1 0.444381 0.466769 0.556945
343 1 0.437545 0.482764 0.506699
317 1 0.439341 0.477234 0.523448
319 1 0.447584 0.461917 0.526798
376 1 0.451209 0.457372 0.543546
378 1 0.464307 0.445928 0.546896
379 1 0.469298 0.442946 0.563644
381 1 0.485583 0.436835 0.566994
322 1 0.469298 0.442946 0.516749
380 1 0.474536 0.440424 0.533497
382 1 0.491303 0.435797 0.536847
383 1 0.497093 0.435275 0.553595
324 1 0.479979 0.438381 0.50335
326 1 0.497093 0.435275 0.506699
447 1 0.436251 0.488431 0.583743
424 1 0.441626 0.471889 0.587092
375 1 0.447584 0.461917 0.573694
377 1 0.459604 0.449345 0.577043
429 1 0.464307 0.445928 0.593792
431 1 0.479979 0.438381 0.597142
433 1 0.491303 0.435797 0.583743
384 1 0.514417 0.436835 0.556945
328 1 0.502907 0.435275 0.523448
330 1 0.520021 0.438381 0.526798
386 1 0.525464 0.440424 0.543546
388 1 0.540396 0.449345 0.546896
389 1 0.544774 0.45317 0.563644
391 1 0.555619 0.466769 0.566994
332 1 0.530702 0.442946 0.513399
334 1 0.544774 0.45317 0.516749
390 1 0.548791 0.457372 0.533497
392 1 0.558374 0.471889 0.536847
393 1 0.560659 0.477234 0.553595
401 1 0.564529 0.494192 0.556945
336 1 0.552416 0.461917 0.50335
338 1 0.560659 0.477234 0.506699
345 1 0.562455 0.482764 0.523448
435 1 0.508697 0.435797 0.587092
385 1 0.520021 0.438381 0.573694
387 1 0.535693 0.445928 0.577043
440 1 0.540396 0.449345 0.593792
442 1 0.552416 0.461917 0.597142
444 1 0.558374 0.471889 0.583743
451 1 0.563749 0.488431 0.587092
412 1 0.497093 0.564725 0.546896
411 1 0.491303 0.564203 0.563644
362 1 0.491303 0.564203 0.516749
410 1 0.485583 0.563165 0.533497
409 1 0.469298 0.557054 0.536847
408 1 0.464307 0.554072 0.553595
407 1 0.451209 0.542628 0.556945
360 1 0.479979 0.561619 0.50335
358 1 0.464307 0.554072 0.506699
357 1 0.459604 0.550655 0.523448
354 1 0.447584 0.538083 0.526798
405 1 0.444381 0.533231 0.543546
399 1 0.437545 0.517236 0.546896
397 1 0.436251 0.511569 0.563644
352 1 0.441626 0.528111 0.513399
342 1 0.436251 0.511569 0.516749
395 1 0.435471 0.505808 0.533497
339 1 0.43521 0.5 0.50335
465 1 0.497093 0.564725 0.593792
463 1 0.479979 0.561619 0.597142
461 1 0.469298 0.557054 0.583743
458 1 0.455226 0.54683 0.587092
406 1 0.447584 0.538083 0.573694
404 1 0.439341 0.522766 0.577043
448 1 0.437545 0.517236 0.593792
402 1 0.564529 0.505808 0.543546
422 1 0.560659 0.522766 0.546896
421 1 0.558374 0.528111 0.563644
419 1 0.548791 0.542628 0.566994
348 1 0.563749 0.511569 0.513399
420 1 0.555619 0.533231 0.533497
418 1 0.544774 0.54683 0.536847
417 1 0.540396 0.550655 0.553595
416 1 0.525464 0.559576 0.556945
372 1 0.552416 0.538083 0.50335
370 1 0.540396 0.550655 0.506699
369 1 0.535693 0.554072 0.523448
366 1 0.520021 0.561619 0.526798
414 1 0.514417 0.563165 0.543546
364 1 0.508697 0.564203 0.513399
350 1 0.56479 0.5 0.526798
403 1 0.56479 0.5 0.573694
400 1 0.562455 0.517236 0.577043
476 1 0.560659 0.522766 0.593792
474 1 0.552416 0.538083 0.597142
472 1 0.544774 0.54683 0.583743
469 1 0.530702 0.557054 0.587092
415 1 0.520021 0.561619 0.573694
413 1 0.502907 0.564725 0.577043
500 1 0.436251 0.488431 0.677535
555 1 0.437545 0.482764 0.694283
532 1 0.444381 0.466769 0.697633
502 1 0.437545 0.482764 0.647387
477 1 0.439341 0.477234 0.664136
478 1 0.447584 0.461917 0.667486
480 1 0.451209 0.457372 0.684234
482 1 0.464307 0.445928 0.687584
445 1 0.435471 0.494192 0.61389
423 1 0.439341 0.477234 0.61724
425 1 0.441626 0.471889 0.633988
479 1 0.451209 0.457372 0.637338
481 1 0.455226 0.45317 0.654087
483 1 0.469298 0.442946 0.657436
484 1 0.474536 0.440424 0.674185
486 1 0.491303 0.435797 0.677535
540 1 0.497093 0.435275 0.694283
426 1 0.444381 0.466769 0.603841
427 1 0.455226 0.45317 0.607191
428 1 0.459604 0.449345 0.623939
430 1 0.474536 0.440424 0.627289
485 1 0.479979 0.438381 0.644038
487 1 0.497093 0.435275 0.647387
432 1 0.485583 0.436835 0.61389
542 1 0.514417 0.436835 0.697633
488 1 0.502907 0.435275 0.664136
489 1 0.520021 0.438381 0.667486
491 1 0.525464 0.440424 0.684234
492 1 0.540396 0.449345 0.687584
434 1 0.502907 0.435275 0.61724
436 1 0.508697 0.435797 0.633988
490 1 0.525464 0.440424 0.637338
493 1 0.544774 0.45317 0.657436
494 1 0.548791 0.457372 0.674185
496 1 0.558374 0.471889 0.677535
550 1 0.560659 0.477234 0.694283
559 1 0.564529 0.494192 0.697633
437 1 0.514417 0.436835 0.603841
438 1 0.530702 0.442946 0.607191
439 1 0.535693 0.445928 0.623939
441 1 0.548791 0.457372 0.627289
495 1 0.552416 0.461917 0.644038
497 1 0.560659 0.477234 0.647387
504 1 0.562455 0.482764 0.664136
443 1 0.555619 0.466769 0.61389
449 1 0.562455 0.482764 0.61724
452 1 0.563749 0.488431 0.633988
454 1 0.564529 0.494192 0.603841
519 1 0.497093 0.564725 0.687584
518 1 0.491303 0.564203 0.657436
517 1 0.485583 0.563165 0.674185
515 1 0.469298 0.557054 0.677535
565 1 0.464307 0.554072 0.694283
563 1 0.451209 0.542628 0.697633
464 1 0.485583 0.563165 0.627289
516 1 0.479979 0.561619 0.644038
514 1 0.464307 0.554072 0.647387
513 1 0.459604 0.550655 0.664136
512 1 0.447584 0.538083 0.667486
511 1 0.444381 0.533231 0.684234
503 1 0.437545 0.517236 0.687584
462 1 0.474536 0.559576 0.61389
460 1 0.459604 0.550655 0.61724
459 1 0.455226 0.54683 0.633988
510 1 0.444381 0.533231 0.637338
509 1 0.441626 0.528111 0.654087
501 1 0.436251 0.511569 0.657436
499 1 0.435471 0.505808 0.674185
457 1 0.451209 0.542628 0.603841
456 1 0.441626 0.528111 0.607191
455 1 0.439341 0.522766 0.623939
446 1 0.435471 0.505808 0.627289
498 1 0.43521 0.5 0.644038
507 1 0.564529 0.505808 0.684234
530 1 0.560659 0.522766 0.687584
505 1 0.563749 0.511569 0.654087
529 1 0.558374 0.528111 0.657436
528 1 0.555619 0.533231 0.674185
526 1 0.544774 0.54683 0.677535
575 1 0.540396 0.550655 0.694283
573 1 0.525464 0.559576 0.697633
450 1 0.562455 0.517236 0.623939
475 1 0.555619 0.533231 0.627289
527 1 0.552416 0.538083 0.644038
525 1 0.540396 0.550655 0.647387
524 1 0.535693 0.554072 0.664136
523 1 0.520021 0.561619 0.667486
522 1 0.514417 0.563165 0.684234
473 1 0.548791 0.542628 0.61389
471 1 0.535693 0.554072 0.61724
470 1 0.530702 0.557054 0.633988
521 1 0.514417 0.563165 0.637338
520 1 0.508697 0.564203 0.654087
468 1 0.525464 0.559576 0.603841
467 1 0.508697 0.564203 0.607191
466 1 0.502907 0.564725 0.623939
508 1 0.56479 0.5 0.667486
506 1 0.564529 0.505808 0.637338
453 1 0.563749 0.511569 0.607191
552 1 0.435471 0.494192 0.707682
536 1 0.469298 0.442946 0.704332
538 1 0.485583 0.436835 0.707682
606 1 0.437545 0.482764 0.788075
604 1 0.435471 0.494192 0.754578
581 1 0.439341 0.477234 0.757928
582 1 0.441626 0.471889 0.774676
584 1 0.451209 0.457372 0.778026
586 1 0.455226 0.45317 0.794775
641 1 0.469298 0.442946 0.798124
553 1 0.436251 0.488431 0.724431
531 1 0.441626 0.471889 0.72778
583 1 0.444381 0.466769 0.744529
585 1 0.455226 0.45317 0.747879
587 1 0.459604 0.449345 0.764627
588 1 0.474536 0.440424 0.767977
589 1 0.479979 0.438381 0.784725
591 1 0.497093 0.435275 0.788075
533 1 0.447584 0.461917 0.714381
534 1 0.459604 0.449345 0.717731
535 1 0.464307 0.445928 0.73448
537 1 0.479979 0.438381 0.737829
590 1 0.485583 0.436835 0.754578
539 1 0.491303 0.435797 0.724431
612 1 0.564529 0.494192 0.744529
558 1 0.563749 0.488431 0.72778
549 1 0.558374 0.471889 0.724431
609 1 0.563749 0.488431 0.774676
607 1 0.562455 0.482764 0.757928
601 1 0.555619 0.466769 0.754578
547 1 0.552416 0.461917 0.737829
546 1 0.544774 0.45317 0.704332
548 1 0.555619 0.466769 0.707682
545 1 0.540396 0.449345 0.73448
592 1 0.502907 0.435275 0.757928
593 1 0.508697 0.435797 0.774676
595 1 0.525464 0.440424 0.778026
597 1 0.530702 0.442946 0.794775
652 1 0.544774 0.45317 0.798124
541 1 0.508697 0.435797 0.72778
594 1 0.514417 0.436835 0.744529
596 1 0.530702 0.442946 0.747879
598 1 0.535693 0.445928 0.764627
599 1 0.548791 0.457372 0.767977
600 1 0.552416 0.461917 0.784725
602 1 0.560659 0.477234 0.788075
543 1 0.520021 0.438381 0.714381
544 1 0.535693 0.445928 0.717731
569 1 0.491303 0.564203 0.704332
567 1 0.474536 0.559576 0.707682
554 1 0.436251 0.511569 0.704332
677 1 0.491303 0.564203 0.798124
624 1 0.485583 0.563165 0.767977
623 1 0.479979 0.561619 0.784725
621 1 0.464307 0.554072 0.788075
570 1 0.497093 0.564725 0.73448
568 1 0.479979 0.561619 0.737829
622 1 0.474536 0.559576 0.754578
620 1 0.459604 0.550655 0.757928
619 1 0.455226 0.54683 0.774676
617 1 0.444381 0.533231 0.778026
616 1 0.441626 0.528111 0.794775
661 1 0.436251 0.511569 0.798124
566 1 0.469298 0.557054 0.724431
564 1 0.455226 0.54683 0.72778
618 1 0.451209 0.542628 0.744529
615 1 0.441626 0.528111 0.747879
614 1 0.439341 0.522766 0.764627
605 1 0.435471 0.505808 0.767977
603 1 0.43521 0.5 0.784725
562 1 0.447584 0.538083 0.714381
561 1 0.439341 0.522766 0.717731
556 1 0.437545 0.517236 0.73448
551 1 0.43521 0.5 0.737829
610 1 0.563749 0.511569 0.747879
613 1 0.564529 0.505808 0.778026
579 1 0.558374 0.528111 0.704332
577 1 0.548791 0.542628 0.707682
611 1 0.563749 0.511569 0.794775
688 1 0.558374 0.528111 0.798124
608 1 0.562455 0.517236 0.764627
635 1 0.555619 0.533231 0.767977
634 1 0.552416 0.538083 0.784725
632 1 0.540396 0.550655 0.788075
560 1 0.56479 0.5 0.714381
557 1 0.562455 0.517236 0.717731
580 1 0.560659 0.522766 0.73448
578 1 0.552416 0.538083 0.737829
633 1 0.548791 0.542628 0.754578
631 1 0.535693 0.554072 0.757928
630 1 0.530702 0.557054 0.774676
628 1 0.514417 0.563165 0.778026
627 1 0.508697 0.564203 0.794775
576 1 0.544774 0.54683 0.724431
574 1 0.530702 0.557054 0.72778
629 1 0.525464 0.559576 0.744529
626 1 0.508697 0.564203 0.747879
625 1 0.502907 0.564725 0.764627
572 1 0.520021 0.561619 0.714381
571 1 0.502907 0.564725 0.717731
658 1 0.435471 0.494192 0.84837
660 1 0.436251 0.488431 0.818222
663 1 0.437545 0.482764 0.834971
637 1 0.444381 0.466769 0.838321
636 1 0.439341 0.477234 0.804824
638 1 0.447584 0.461917 0.808173
639 1 0.451209 0.457372 0.824922
640 1 0.464307 0.445928 0.828272
642 1 0.469298 0.442946 0.84502
644 1 0.485583 0.436835 0.84837
643 1 0.474536 0.440424 0.814873
645 1 0.491303 0.435797 0.818222
646 1 0.497093 0.435275 0.834971
648 1 0.514417 0.436835 0.838321
647 1 0.502907 0.435275 0.804824
649 1 0.520021 0.438381 0.808173
650 1 0.525464 0.440424 0.824922
651 1 0.540396 0.449345 0.828272
653 1 0.544774 0.45317 0.84502
655 1 0.555619 0.466769 0.84837
654 1 0.548791 0.457372 0.814873
656 1 0.558374 0.471889 0.818222
657 1 0.560659 0.477234 0.834971
666 1 0.564529 0.494192 0.838321
665 1 0.562455 0.482764 0.804824
679 1 0.497093 0.564725 0.828272
678 1 0.491303 0.564203 0.84502
675 1 0.474536 0.559576 0.84837
676 1 0.485583 0.563165 0.814873
674 1 0.469298 0.557054 0.818222
673 1 0.464307 0.554072 0.834971
671 1 0.451209 0.542628 0.838321
672 1 0.459604 0.550655 0.804824
670 1 0.447584 0.538083 0.808173
669 1 0.444381 0.533231 0.824922
664 1 0.437545 0.517236 0.828272
662 1 0.436251 0.511569 0.84502
659 1 0.435471 0.505808 0.814873
667 1 0.564529 0.505808 0.824922
690 1 0.560659 0.522766 0.828272
689 1 0.558374 0.528111 0.84502
686 1 0.548791 0.542628 0.84837
687 1 0.555619 0.533231 0.814873
685 1 0.544774 0.54683 0.818222
684 1 0.540396 0.550655 0.834971
682 1 0.525464 0.559576 0.838321
683 1 0.535693 0.554072 0.804824
681 1 0.520021 0.561619 0.808173
680 1 0.514417 0.563165 0.824922
668 1 0.56479 0.5 0.808173
ITEM: TIMESTEP
1000
ITEM: NUMBER OF ATOMS
690
ITEM: BOX BOUNDS ff ff ff
-4.0000000000000000e+01 4.0000000000000000e+01
-4.0000000000000000e+01 4.0000000000000000e+01
-4.0000000000000000e+01 4.0000000000000000e+01
ITEM: ATOMS id type xs ys zs
24 1 0.437245 0.493722 0.191741
1 1 0.441589 0.477049 0.195045
25 1 0.43698 0.487581 0.161941
2 1 0.442523 0.471391 0.16534
3 1 0.445952 0.466565 0.181501
5 1 0.455898 0.452553 0.18496
4 1 0.447584 0.461917 0.15163
6 1 0.459604 0.449345 0.15498
8 1 0.464672 0.44553 0.171549
9 1 0.479525 0.437358 0.175052
10 1 0.485791 0.436524 0.191686
11 1 0.490292 0.433909 0.161646
12 1 0.502504 0.43495 0.195497
13 1 0.508034 0.436279 0.164886
14 1 0.513653 0.437217 0.181442
16 1 0.530068 0.444213 0.185281
15 1 0.520021 0.438381 0.15163
17 1 0.535693 0.445928 0.15498
19 1 0.539853 0.450788 0.172057
20 1 0.5518 0.463349 0.175015
21 1 0.554366 0.468684 0.191585
27 1 0.561185 0.484794 0.194964
22 1 0.558626 0.472885 0.161804
30 1 0.563009 0.489109 0.165065
32 1 0.563286 0.495828 0.181613
44 1 0.497806 0.563904 0.171379
43 1 0.481241 0.561808 0.174906
42 1 0.475244 0.559767 0.191087
40 1 0.460825 0.550712 0.194794
41 1 0.46977 0.557441 0.161421
39 1 0.45594 0.546679 0.164906
38 1 0.453146 0.541801 0.181642
36 1 0.443274 0.527769 0.185049
37 1 0.447584 0.538083 0.15163
34 1 0.439341 0.522766 0.15498
26 1 0.438222 0.516561 0.171954
23 1 0.437309 0.499447 0.175268
33 1 0.56479 0.5 0.15163
28 1 0.562455 0.517236 0.15498
55 1 0.559429 0.523175 0.17128
54 1 0.552076 0.538437 0.17463
53 1 0.547246 0.542625 0.191612
51 1 0.534268 0.553346 0.195501
52 1 0.545861 0.547953 0.161175
50 1 0.531134 0.557238 0.164752
49 1 0.525251 0.558787 0.181528
47 1 0.508769 0.562563 0.184931
48 1 0.520021 0.561619 0.15163
45 1 0.502907 0.564725 0.15498
31 1 0.562657 0.513286 0.184983
130 1 0.437026 0.494671 0.28603
81 1 0.439164 0.488772 0.255485
133 1 0.440273 0.483306 0.27232
112 1 0.44668 0.467579 0.275306
83 1 0.439056 0.482568 0.225036
56 1 0.441952 0.477745 0.24216
58 1 0.449049 0.462167 0.246029
114 1 0.452152 0.457528 0.262279
116 1 0.465123 0.44582 0.265531
117 1 0.469943 0.442592 0.282365
118 1 0.484744 0.434221 0.285785
57 1 0.443366 0.471631 0.211852
59 1 0.451645 0.457114 0.214894
60 1 0.455443 0.453572 0.231762
61 1 0.469278 0.442738 0.23476
63 1 0.474157 0.440367 0.251801
65 1 0.490035 0.432718 0.254536
120 1 0.494788 0.430443 0.271817
7 1 0.459701 0.448015 0.201883
62 1 0.474325 0.439635 0.20498
64 1 0.47983 0.438388 0.221055
66 1 0.49681 0.435467 0.224979
113 1 0.449032 0.462591 0.292339
115 1 0.460991 0.450113 0.29605
67 1 0.502096 0.434306 0.241756
69 1 0.519578 0.438308 0.244358
123 1 0.525748 0.441327 0.260466
125 1 0.539933 0.450442 0.265207
126 1 0.54309 0.454008 0.282419
127 1 0.553393 0.468178 0.285369
68 1 0.508469 0.436117 0.212123
70 1 0.524836 0.441783 0.215563
71 1 0.530484 0.443741 0.23192
72 1 0.544096 0.454889 0.235424
74 1 0.547955 0.459509 0.251673
76 1 0.557532 0.474167 0.255693
129 1 0.558787 0.479425 0.272087
137 1 0.562785 0.495745 0.275672
18 1 0.534759 0.447304 0.202057
73 1 0.547927 0.458984 0.204899
75 1 0.551416 0.462825 0.221944
77 1 0.55932 0.478652 0.22503
84 1 0.562091 0.484462 0.241889
85 1 0.562348 0.490266 0.211995
122 1 0.519265 0.438083 0.293481
124 1 0.533874 0.446766 0.29608
149 1 0.496714 0.567004 0.264584
148 1 0.491313 0.565067 0.281376
147 1 0.47473 0.56008 0.284656
99 1 0.491074 0.567685 0.235563
98 1 0.484787 0.566394 0.251837
95 1 0.469827 0.558113 0.25496
145 1 0.464767 0.554329 0.271273
143 1 0.451885 0.543155 0.275032
97 1 0.485505 0.562946 0.205242
96 1 0.480458 0.562466 0.222209
94 1 0.465321 0.553766 0.225326
93 1 0.460855 0.550712 0.242261
91 1 0.448764 0.538449 0.245812
141 1 0.445709 0.533395 0.262512
134 1 0.439179 0.517437 0.26609
132 1 0.437636 0.512145 0.282661
92 1 0.456913 0.546607 0.211752
90 1 0.445821 0.533043 0.215428
89 1 0.443094 0.528382 0.232398
82 1 0.438022 0.511634 0.23532
80 1 0.437688 0.50644 0.252675
35 1 0.441607 0.522163 0.201564
79 1 0.436811 0.505428 0.205129
78 1 0.436864 0.499763 0.221861
142 1 0.449799 0.538418 0.291858
140 1 0.441087 0.523632 0.295522
138 1 0.563082 0.506933 0.261979
159 1 0.560699 0.523829 0.264707
158 1 0.558165 0.529457 0.281831
157 1 0.547507 0.543038 0.285233
86 1 0.563337 0.513228 0.231639
110 1 0.55834 0.529756 0.234758
109 1 0.555693 0.534239 0.251466
106 1 0.543728 0.546851 0.25505
155 1 0.538876 0.5501 0.272026
153 1 0.524366 0.559747 0.275506
29 1 0.561666 0.518989 0.201433
108 1 0.554732 0.534674 0.204991
107 1 0.551526 0.539093 0.221709
105 1 0.538929 0.550008 0.225481
104 1 0.534085 0.553517 0.241876
102 1 0.518822 0.561964 0.245178
151 1 0.513848 0.564198 0.261576
103 1 0.529265 0.555529 0.212317
101 1 0.513649 0.561654 0.214502
100 1 0.508264 0.565528 0.23154
46 1 0.502649 0.563567 0.20136
88 1 0.563831 0.501929 0.245266
87 1 0.563798 0.507806 0.215145
139 1 0.562253 0.501028 0.292123
135 1 0.561002 0.518339 0.294864
152 1 0.519322 0.562294 0.292122
150 1 0.502535 0.565432 0.294741
237 1 0.437126 0.489102 0.396176
239 1 0.438437 0.483481 0.365817
214 1 0.439611 0.478101 0.382334
216 1 0.448222 0.462637 0.385511
184 1 0.43571 0.494959 0.331836
160 1 0.440554 0.478521 0.335783
161 1 0.442871 0.472798 0.352756
163 1 0.452506 0.458335 0.355953
218 1 0.456119 0.453337 0.372446
220 1 0.468841 0.442389 0.376255
221 1 0.474314 0.440912 0.393461
222 1 0.491145 0.436209 0.397234
131 1 0.437191 0.489382 0.302329
111 1 0.442562 0.472649 0.305833
162 1 0.446529 0.468152 0.322314
164 1 0.456479 0.454045 0.326288
165 1 0.460509 0.44958 0.343054
167 1 0.474605 0.439866 0.346437
169 1 0.479651 0.438333 0.363385
223 1 0.496392 0.434399 0.366829
166 1 0.465277 0.446857 0.313265
168 1 0.479775 0.438362 0.315963
170 1 0.484483 0.435641 0.332954
119 1 0.490664 0.434843 0.302615
225 1 0.501944 0.43536 0.383819
227 1 0.519378 0.438871 0.386328
171 1 0.501236 0.433286 0.336595
172 1 0.507711 0.434219 0.353123
174 1 0.524106 0.44117 0.356264
229 1 0.529304 0.444259 0.372529
231 1 0.542942 0.454992 0.375536
232 1 0.547648 0.45843 0.392195
233 1 0.558189 0.472095 0.395843
121 1 0.507468 0.435487 0.306923
173 1 0.512291 0.436451 0.32326
175 1 0.528119 0.443649 0.326173
176 1 0.533714 0.447757 0.342711
178 1 0.546923 0.458785 0.345661
180 1 0.550558 0.463422 0.362119
234 1 0.561308 0.477152 0.365185
242 1 0.564401 0.480502 0.382389
177 1 0.53753 0.450409 0.312853
179 1 0.549379 0.463366 0.31585
181 1 0.553469 0.467987 0.332588
187 1 0.560838 0.483974 0.336019
188 1 0.563814 0.489523 0.352161
128 1 0.556067 0.473162 0.302046
136 1 0.561045 0.4897 0.305514
190 1 0.562792 0.495154 0.322106
255 1 0.492522 0.563915 0.375487
254 1 0.486687 0.562474 0.392425
253 1 0.470665 0.556561 0.395044
201 1 0.485669 0.565106 0.345132
200 1 0.481045 0.562096 0.36198
251 1 0.465553 0.554877 0.364784
250 1 0.460458 0.551158 0.381257
248 1 0.448386 0.538769 0.384944
202 1 0.497143 0.566124 0.311694
199 1 0.48012 0.563367 0.315371
198 1 0.474894 0.561172 0.33185
197 1 0.459958 0.551858 0.334732
196 1 0.455779 0.5483 0.351647
194 1 0.444823 0.534192 0.354638
246 1 0.442382 0.528536 0.371641
238 1 0.436608 0.511751 0.375614
236 1 0.436592 0.506348 0.393057
146 1 0.470426 0.558192 0.301496
144 1 0.456945 0.547658 0.305105
195 1 0.451259 0.543905 0.321242
193 1 0.442029 0.529027 0.324613