read_data	PE_nc10_cl1000.dat
Reading data file ...
  orthogonal box = (0 0 0) to (80.0586 80.0586 80.0586)
  1 by 2 by 2 MPI processor grid
  reading atoms ...
  10000 atoms
  scanning bonds ...
  1 = max bonds/atom
  scanning angles ...
  1 = max angles/atom
  scanning dihedrals ...
  1 = max dihedrals/atom
  orthogonal box = (0 0 0) to (80.0586 80.0586 80.0586)
  1 by 2 by 2 MPI processor grid
  reading bonds ...
  9990 bonds
  reading angles ...
  9980 angles
  reading dihedrals ...
  9970 dihedrals
Finding 1-2 1-3 1-4 neighbors ...
  special bond factors lj:    0        0        0       
  special bond factors coul:  0        0        0       
     2 = max # of 1-2 neighbors
     2 = max # of 1-3 neighbors
     4 = max # of 1-4 neighbors
     6 = max # of special neighbors
  special bonds CPU = 0.001 seconds
  read_data CPU = 0.108 seconds

# Dreiding potential information
neighbor	0.4 bin
neigh_modify	every 10 one 10000
bond_style      harmonic
bond_coeff	1 350 1.53
angle_style     harmonic
angle_coeff	1 60 109.5
dihedral_style	multi/harmonic
dihedral_coeff	1 1.73 -4.49 0.776 6.99 0.0
pair_style	lj/cut 10.5
pair_coeff	1 1 0.112 4.01 10.5

#####################################################
# Equilibration Stage 1 (Langevin dynamics at 500 K)
velocity 	all create 500.0 1231
fix		1 all nve/limit 0.05
fix		2 all langevin 500.0 500.0 10.0 904297
thermo_style	custom step temp press
thermo          100
timestep	1
run		10000

CITE-CITE-CITE-CITE-CITE-CITE-CITE-CITE-CITE-CITE-CITE-CITE-CITE

Your simulation uses code contributions which should be cited:

- Type Label Framework: https://doi.org/10.1021/acs.jpcb.3c08419

@Article{Gissinger24,
 author = {Jacob R. Gissinger, Ilia Nikiforov, Yaser Afshar, Brendon Waters, Moon-ki Choi, Daniel S. Karls, Alexander Stukowski, Wonpil Im, Hendrik Heinz, Axel Kohlmeyer, and Ellad B. Tadmor},
 title = {Type Label Framework for Bonded Force Fields in LAMMPS},
 journal = {J. Phys. Chem. B},
 year =    2024,
 volume =  128,
 number =  13,
 pages =   {3282–-3297}
}

CITE-CITE-CITE-CITE-CITE-CITE-CITE-CITE-CITE-CITE-CITE-CITE-CITE

Generated 0 of 0 mixed pair_coeff terms from geometric mixing rule
Neighbor list info ...
  update: every = 10 steps, delay = 0 steps, check = yes
  max neighbors/atom: 10000, page size: 100000
  master list distance cutoff = 10.9
  ghost atom cutoff = 10.9
  binsize = 5.45, bins = 15 15 15
  1 neighbor lists, perpetual/occasional/extra = 1 0 0
  (1) pair lj/cut, perpetual
      attributes: half, newton on
      pair build: half/bin/newton
      stencil: half/bin/3d
      bin: standard
WARNING: Inconsistent image flags (src/domain.cpp:1051)
Per MPI rank memory allocation (min/avg/max) = 7.457 | 8.336 | 8.98 Mbytes
   Step          Temp          Press     
         0   500            1.8475472e+08
       100   812.17534      67866.131    
       200   562.04734      38830.393    
       300   524.39405      28311.88     
       400   521.25176      22742.674    
       500   511.37507      19192.021    
       600   506.26281      16962.152    
       700   508.50564      14794.052    
       800   497.11616      13331.064    
       900   500.27964      11684.93     
      1000   500.82511      10918.368    
      1100   501.38554      10276.034    
      1200   499.45124      9479.9282    
      1300   501.94297      8664.3285    
      1400   502.29045      7964.5338    
      1500   496.45246      7958.4202    
      1600   499.51586      7402.6927    
      1700   506.46013      7001.7544    
      1800   506.90745      6905.0695    
      1900   499.48213      6268.1199    
      2000   504.81001      6365.2305    
      2100   502.95699      5830.7949    
      2200   499.63626      5763.4077    
      2300   500.34003      5734.9158    
      2400   499.62358      5452.1162    
      2500   504.4706       5394.2359    
      2600   503.21734      5197.6926    
      2700   500.43758      4888.1199    
      2800   495.24764      4666.0571    
      2900   503.4809       4661.7641    
      3000   502.56214      4619.1561    
      3100   499.13288      4421.7355    
      3200   502.30535      4106.3436    
      3300   502.11695      3946.1935    
      3400   495.43999      3817.1848    
      3500   500.8683       3943.922     
      3600   499.44192      3926.6557    
      3700   500.41121      3731.2502    
      3800   493.36485      3254.9956    
      3900   505.80836      3810.1813    
      4000   496.5277       3670.6877    
      4100   503.43874      3462.7467    
      4200   506.64131      3422.4348    
      4300   502.42925      3989.2441    
      4400   502.17195      3350.8006    
      4500   506.26194      3145.3085    
      4600   493.39485      3109.6691    
      4700   496.46965      2974.3824    
      4800   496.91142      2892.3056    
      4900   498.09972      2813.4629    
      5000   493.98611      3068.7072    
      5100   510.10287      2638.8285    
      5200   499.42281      2943.9061    
      5300   498.3045       2602.5637    
      5400   499.36642      2705.4928    
      5500   504.11686      2290.8503    
      5600   499.36996      2472.4808    
      5700   496.80386      2306.0633    
      5800   497.78891      2616.7431    
      5900   504.99977      2347.3292    
      6000   498.9995       2727.8258    
      6100   499.31738      2446.9148    
      6200   492.68483      2518.9538    
      6300   504.90603      2366.7433    
      6400   493.92474      2157.7731    
      6500   497.67979      2408.3245    
      6600   503.5738       2222.3196    
      6700   500.80794      2624.5398    
      6800   501.11318      2120.5464    
      6900   498.14467      2303.0255    
      7000   502.28979      2384.3083    
      7100   505.32368      2308.652     
      7200   505.82365      2194.6496    
      7300   500.8385       2248.6119    
      7400   495.81457      1946.6302    
      7500   498.45911      1716.3631    
      7600   504.40417      1887.1667    
      7700   490.60106      1917.298     
      7800   506.01236      1934.858     
      7900   499.02107      1757.3124    
      8000   495.18271      1983.6026    
      8100   503.75624      1846.8382    
      8200   507.1387       1945.4036    
      8300   497.31328      1973.0354    
      8400   505.15846      1545.0139    
      8500   503.62513      1789.3683    
      8600   499.59414      1900.0449    
      8700   502.4583       1856.3168    
      8800   500.17779      1756.2869    
      8900   499.04895      1449.4486    
      9000   501.42206      1532.4775    
      9100   505.60346      2086.9335    
      9200   490.01144      1383.9854    
      9300   494.91139      1661.609     
      9400   499.21082      1311.0123    
      9500   497.09103      1313.5604    
      9600   499.20604      1484.5718    
      9700   505.92433      1305.2449    
      9800   497.29205      1963.5207    
      9900   497.84322      1775.7474    
     10000   495.71558      1537.8869    
Loop time of 21.8279 on 4 procs for 10000 steps with 10000 atoms

Performance: 39.582 ns/day, 0.606 hours/ns, 458.129 timesteps/s, 4.581 Matom-step/s
23.3% CPU use with 4 MPI tasks x 1 OpenMP threads

MPI task timing breakdown:
Section |  min time  |  avg time  |  max time  |%varavg| %total
---------------------------------------------------------------
Pair    | 3.4047     | 8.8616     | 12.258     | 117.0 | 40.60
Bond    | 1.0208     | 1.7535     | 2.2561     |  35.8 |  8.03
Neigh   | 4.7221     | 4.7244     | 4.7272     |   0.1 | 21.64
Comm    | 1.3611     | 5.4979     | 12.071     | 178.9 | 25.19
Output  | 0.00336    | 0.0056722  | 0.009549   |   3.2 |  0.03
Modify  | 0.43888    | 0.87128    | 1.1392     |  28.9 |  3.99
Other   |            | 0.1136     |            |       |  0.52

Nlocal:           2500 ave        3252 max        1226 min
Histogram: 1 0 0 0 0 0 1 0 0 2
Nghost:        5066.25 ave        5364 max        4768 min
Histogram: 1 0 0 1 0 0 1 0 0 1
Neighs:         179324 ave      242674 max       69556 min
Histogram: 1 0 0 0 0 1 0 0 0 2

Total # of neighbors = 717294
Ave neighs/atom = 71.7294
Ave special neighs/atom = 5.988
Neighbor list builds = 797
Dangerous builds = 595
unfix 1
unfix 2
write_restart 	restart.${simname}.dreiding1
write_restart 	restart.PE_nc10_cl1000.dreiding1
System init for write_restart ...
Generated 0 of 0 mixed pair_coeff terms from geometric mixing rule

#####################################################
# Equilibration Stage 2 (NPT dynamics at 500 K)
fix		1 all npt temp 500.0 500.0 50 iso 0 0 1000 drag 2
fix  		2 all momentum 1 linear 1 1 1
thermo_style	custom step temp press
thermo          100
timestep	0.5
reset_timestep	0
run		50000
Generated 0 of 0 mixed pair_coeff terms from geometric mixing rule
WARNING: Inconsistent image flags (src/domain.cpp:1051)
Per MPI rank memory allocation (min/avg/max) = 7.457 | 8.338 | 8.98 Mbytes
   Step          Temp          Press     
         0   495.71558      1537.8869    
       100   497.06357      1517.7554    
       200   503.38002      948.73552    
       300   507.78346      965.12497    
       400   498.4595       737.4799     
       500   507.0098       859.71184    
       600   505.7172       116.48792    
       700   503.47601      729.84927    
       800   505.7788      -20.174095    
       900   508.46205      553.30983    
      1000   501.97333     -49.23779     
      1100   501.10192      284.57132    
      1200   504.74783     -61.2185      
      1300   499.80661      108.27034    
      1400   502.46619      1.4857123    
      1500   502.62601     -81.446324    
      1600   499.04145      80.034953    
      1700   501.07916     -193.32745    
      1800   505.56619      318.07489    
      1900   498.79837     -168.02245    
      2000   503.00777      159.80611    
      2100   500.79679     -218.63787    
      2200   501.54784     -43.27531     
      2300   497.09172     -64.12783     
      2400   502.88369     -219.54768    
      2500   500.84213     -60.252586    
      2600   498.40497     -258.68188    
      2700   502.77636      243.03501    
      2800   497.43957     -544.35149    
      2900   502.45242      304.09597    
      3000   501.00472     -389.08122    
      3100   497.4289       237.41398    
      3200   504.58297     -365.52486    
      3300   502.74115     -135.38617    
      3400   495.27107      72.11485     
      3500   500.21432     -261.07575    
      3600   503.83283     -78.07279     
      3700   502.0769      -64.230241    
      3800   499.99178      14.453422    
      3900   499.50401      50.664892    
      4000   498.37358     -290.3588     
      4100   504.8757      -161.72629    
      4200   502.67571      134.46351    
      4300   501.9072      -456.11733    
      4400   503.43458      121.26893    
      4500   496.29799     -261.61133    
      4600   496.88207      160.73135    
      4700   503.22323     -229.65815    
      4800   506.66051     -118.37168    
      4900   500.94652      73.786407    
      5000   503.79271     -181.94675    
      5100   498.87935     -87.834962    
      5200   498.95968      111.78045    
      5300   495.3482      -286.21689    
      5400   496.53647      112.60639    
      5500   500.93509     -64.044425    
      5600   497.42324     -107.75374    
      5700   497.79443     -7.7412913    
      5800   499.05402     -247.76379    
      5900   500.22346      4.1863937    
      6000   503.98772     -112.83765    
      6100   497.96981     -177.05441    
      6200   505.45009      177.20131    
      6300   504.05896     -66.458976    
      6400   504.2646       31.751296    
      6500   501.26463      12.760405    
      6600   499.40864     -46.804451    
      6700   492.05001      17.751187    
      6800   498.40722     -109.51516    
      6900   496.77596     -97.641191    
      7000   496.39884     -42.144998    
      7100   497.52981     -16.413239    
      7200   503.07978     -124.1888     
      7300   501.75051     -188.76945    
      7400   499.28514     -33.480713    
      7500   503.39782     -23.28465     
      7600   502.10309      26.334438    
      7700   500.85575     -196.3483     
      7800   499.42019      155.46678    
      7900   500.81498     -283.50737    
      8000   503.44485      107.56884    
      8100   498.09505     -331.72553    
      8200   504.55063      272.23639    
      8300   500.67299     -286.84038    
      8400   509.51402      97.22542     
      8500   507.4987      -190.16454    
      8600   504.97907      241.89076    
      8700   498.92071     -399.83537    
      8800   497.90748     -61.552245    
      8900   501.80199     -122.27934    
      9000   499.05673      77.566055    
      9100   495.40507     -131.42722    
      9200   495.48777      49.441814    
      9300   501.90906      64.57863     
      9400   498.11483     -219.88507    
      9500   506.10364      70.666163    
      9600   499.25574      45.58602     
      9700   501.98402     -382.38869    
      9800   501.99927      76.790649    
      9900   497.34601     -21.934442    
     10000   498.88758     -333.66694    
     10100   500.7188       19.994057    
     10200   501.84847     -262.59171    
     10300   499.41422     -122.29765    
     10400   499.97698      35.683486    
     10500   503.34492     -26.609936    
     10600   504.01207     -6.0830809    
     10700   498.31849     -172.57576    
     10800   498.27985     -177.23377    
     10900   501.34922      154.06       
     11000   498.74893     -329.65112    
     11100   498.86668      108.25497    
     11200   497.12982      8.3544341    
     11300   502.89392     -348.33575    
     11400   503.31878      273.71548    
     11500   499.72612     -344.65727    
     11600   502.26571     -35.68983     
     11700   504.40953      118.77442    
     11800   498.75153     -445.83673    
     11900   502.25703      315.44362    
     12000   498.21989     -164.87637    
     12100   502.69844      210.32288    
     12200   498.04244     -464.481      
     12300   502.44985      178.18575    
     12400   500.29622      23.234238    
     12500   500.2708      -209.46789    
     12600   495.13096      123.55434    
     12700   501.60594     -396.89659    
     12800   500.94119      110.4759     
     12900   498.77696      154.73976    
     13000   502.50303     -333.64912    
     13100   500.04842      429.84569    
     13200   495.39375     -426.64264    
     13300   495.83519      49.994808    
     13400   504.8009      -371.31532    
     13500   499.77828      141.11223    
     13600   501.72418     -187.99267    
     13700   503.5248       199.04369    
     13800   502.64916     -294.2699     
     13900   497.18984      56.796279    
     14000   497.66326     -12.985261    
     14100   508.24122     -99.763266    
     14200   498.53034     -254.23442    
     14300   498.19092     -91.890674    
     14400   500.17767      62.374234    
     14500   503.71906      16.734407    
     14600   504.77401     -124.47143    
     14700   500.43838     -150.33409    
     14800   503.01808      74.798006    
     14900   496.0274      -25.898091    
     15000   500.37962      137.82281    
     15100   503.55608     -254.32499    
     15200   501.78539      87.116326    
     15300   497.47354     -56.338579    
     15400   503.2714      -145.79739    
     15500   502.65138      128.87947    
     15600   499.26991     -307.14867    
     15700   501.06915      145.69255    
     15800   502.72686     -83.49829     
     15900   499.69242     -132.61596    
     16000   499.98302      33.091392    
     16100   498.54745     -167.21815    
     16200   502.41456     -171.59968    
     16300   499.48392      106.44945    
     16400   499.54658      44.664072    
     16500   504.35397     -138.60515    
     16600   500.67559     -209.3859     
     16700   499.54875      97.471555    
     16800   504.17217     -205.76765    
     16900   498.39459     -93.621825    
     17000   499.47475      196.05987    
     17100   497.28753     -283.28567    
     17200   500.86662      41.087511    
     17300   497.2729      -29.226349    
     17400   502.13999      275.96267    
     17500   501.6843      -463.64325    
     17600   500.19058      274.24418    
     17700   497.69848     -646.60105    
     17800   499.10554      98.199626    
     17900   497.59397      246.40319    
     18000   502.98944     -380.28353    
     18100   499.49958      270.59122    
     18200   501.15004     -123.74643    
     18300   503.16813     -190.11165    
     18400   500.59191      488.08317    
     18500   497.03395     -580.98532    
     18600   501.80678      406.64525    
     18700   499.18886     -341.97708    
     18800   497.50871      368.92461    
     18900   501.05349     -403.08037    
     19000   499.86712      264.58185    
     19100   501.76887     -445.26483    
     19200   496.29257      229.85253    
     19300   499.1125      -73.120623    
     19400   501.59141     -359.26922    
     19500   502.73909      248.97672    
     19600   498.97188     -446.54388    
     19700   502.24869      308.01159    
     19800   500.59101     -410.86361    
     19900   503.613        118.7826     
     20000   504.53642      304.00044    
     20100   500.15064     -147.95571    
     20200   497.34135     -39.661374    
     20300   502.18232     -82.155703    
     20400   499.93486      101.7303     
     20500   496.70135     -117.87741    
     20600   496.17379     -174.36239    
     20700   501.57309     -221.75302    
     20800   503.02223     -63.308159    
     20900   501.13622      153.04839    
     21000   498.05544     -540.39891    
     21100   503.33214      564.48905    
     21200   498.97388     -642.29658    
     21300   504.29041      358.76177    
     21400   502.52343     -141.65872    
     21500   502.67718      157.66719    
     21600   495.50035      102.18107    
     21700   503.50895     -94.447126    
     21800   499.54141      96.750806    
     21900   500.79251     -179.8591     
     22000   499.76433     -288.70593    
     22100   503.17935      59.707209    
     22200   494.44237     -459.11613    
     22300   500.80343      507.59596    
     22400   498.21979     -258.47757    
     22500   505.47043      89.895754    
     22600   496.71384     -305.44877    
     22700   499.78282      273.92041    
     22800   499.30944     -251.4052     
     22900   500.04075      295.51299    
     23000   499.60288     -195.70558    
     23100   499.60629     -291.30301    
     23200   501.97483      110.36027    
     23300   499.34441     -462.3859     
     23400   499.2092       243.26484    
     23500   503.16037     -153.31749    
     23600   502.14668      124.06896    
     23700   501.2301      -244.32344    
     23800   503.04509      83.970079    
     23900   503.2704       197.19742    
     24000   500.81848     -79.167459    
     24100   494.40571      112.74915    
     24200   501.60212     -200.98001    
     24300   498.46528      61.507355    
     24400   497.17461     -48.840371    
     24500   506.39638     -85.093848    
     24600   500.8726      -193.89623    
     24700   501.00006     -260.76411    
     24800   498.42535      194.59832    
     24900   501.46785     -418.52792    
     25000   506.81939      243.12399    
     25100   500.19515     -319.27199    
     25200   502.55979      176.76667    
     25300   501.48877     -4.1649719    
     25400   498.79444      22.212505    
     25500   502.3042       96.788219    
     25600   499.55959      38.606735    
     25700   497.38631     -234.86076    
     25800   496.98066     -38.481968    
     25900   497.83172     -160.53264    
     26000   502.86969     -212.0912     
     26100   502.02878      137.81263    
     26200   504.33427      100.01929    
     26300   500.19778      6.9490967    
     26400   498.73871     -183.81196    
     26500   497.57678      92.783317    
     26600   497.10382     -205.03626    
     26700   505.28358      122.69695    
     26800   498.91967     -65.970908    
     26900   499.31414     -175.13822    
     27000   500.88739      489.65225    
     27100   494.54968     -567.61019    
     27200   496.40336      135.61416    
     27300   499.4068      -96.697954    
     27400   501.14093     -129.48031    
     27500   501.90707      207.28143    
     27600   503.15647     -375.60117    
     27700   505.55769      57.529997    
     27800   500.89587     -159.20887    
     27900   499.78342      193.43712    
     28000   498.41239     -24.582726    
     28100   501.37097      161.26219    
     28200   497.18885     -127.62664    
     28300   503.70745     -178.67397    
     28400   500.25684      167.48848    
     28500   500.94265     -42.107624    
     28600   497.69067      133.39457    
     28700   498.57129     -335.86205    
     28800   503.49414      367.58105    
     28900   499.65868     -131.42939    
     29000   503.00624      7.2054818    
     29100   506.01129      164.01954    
     29200   498.44702     -276.90304    
     29300   501.56574      182.83354    
     29400   502.90162     -241.11322    
     29500   498.60003      87.772086    
     29600   501.72016     -403.15045    
     29700   500.50979      156.43275    
     29800   497.65321     -131.91907    
     29900   498.04264      151.93722    
     30000   500.31009     -146.96919    
     30100   501.49287      3.8726669    
     30200   500.0557      -201.37417    
     30300   502.10035     -200.50811    
     30400   500.72041      277.89232    
     30500   496.63523     -199.65026    
     30600   496.5088       29.307887    
     30700   506.16231     -51.9511      
     30800   502.23636     -86.767607    
     30900   502.37486      188.24385    
     31000   499.03019      8.44719      
     31100   498.89316     -37.991884    
     31200   497.27564      206.16483    
     31300   501.15372     -386.59678    
     31400   499.47477      98.96234     
     31500   499.03277      73.079281    
     31600   500.42587     -266.3147     
     31700   497.14263      5.8178666    
     31800   500.55152      149.54053    
     31900   496.03161     -106.74982    
     32000   502.00352     -66.505192    
     32100   501.77416      79.192539    
     32200   502.02267     -225.64719    
     32300   503.49187      148.33308    
     32400   502.86661      104.58721    
     32500   497.01458     -159.69257    
     32600   497.93891     -135.78534    
     32700   497.67053     -301.2557     
     32800   502.25555      170.31069    
     32900   497.96128     -99.613971    
     33000   497.75323      274.13044    
     33100   496.19883      12.822258    
     33200   504.42022     -28.375957    
     33300   503.66645     -45.788779    
     33400   499.83092      15.457305    
     33500   497.35871     -83.977717    
     33600   501.69964     -176.61936    
     33700   498.51796      355.90382    
     33800   491.02061      236.36511    
     33900   502.57727     -209.68885    
     34000   498.71155      255.51293    
     34100   499.35206     -118.86117    
     34200   497.98998      82.335696    
     34300   499.76112     -276.96093    
     34400   497.31268      112.00765    
     34500   500.55262     -212.63403    
     34600   498.13811      117.42176    
     34700   497.16258     -565.85244    
     34800   508.07022      576.97527    
     34900   498.22869     -331.9415     
     35000   502.56056      312.23912    
     35100   504.17396     -128.85243    
     35200   500.98503     -103.20595    
     35300   502.32066      421.70846    
     35400   500.54971     -247.1205     
     35500   497.0015       28.7151      
     35600   498.94515     -112.04719    
     35700   500.15695      33.376285    
     35800   500.72316     -106.784      
     35900   502.68709      18.276287    
     36000   504.10729     -52.558558    
     36100   496.44157      2.596726     
     36200   499.13181      236.62709    
     36300   508.39186     -196.56909    
     36400   504.11122      267.54349    
     36500   500.69165     -320.84349    
     36600   500.01239      171.89807    
     36700   500.17833     -306.77573    
     36800   494.78956      585.14141    
     36900   505.62424     -122.85769    
     37000   501.37028     -32.872354    
     37100   502.12139      351.20377    
     37200   499.95173     -203.81799    
     37300   503.19954     -29.229497    
     37400   499.89802     -300.82289    
     37500   497.247       -100.67005    
     37600   500.13506     -270.49755    
     37700   500.7826       50.229158    
     37800   500.24158     -259.98052    
     37900   502.21197     -272.66658    
     38000   500.50132      198.33276    
     38100   503.59704     -258.29627    
     38200   509.58118     -74.392817    
     38300   502.39961      203.51815    
     38400   499.72199      224.12104    
     38500   496.08854     -46.595715    
     38600   506.31561      44.594027    
     38700   497.76386     -59.074053    
     38800   499.25858      238.7994     
     38900   497.20446     -574.16213    
     39000   499.62389      159.30545    
     39100   500.43648     -100.51563    
     39200   497.26797     -276.44736    
     39300   506.62646      95.501597    
     39400   498.90688      29.802845    
     39500   504.61343     -113.13387    
     39600   500.25888      162.34611    
     39700   498.36229      103.00709    
     39800   500.85163     -227.95435    
     39900   496.83215      278.20529    
     40000   500.44174     -160.1546     
     40100   500.56901     -99.002785    
     40200   499.10772      11.456017    
     40300   502.58924     -37.689651    
     40400   504.53169     -43.296714    
     40500   498.30766     -85.754658    
     40600   499.12761      178.97837    
     40700   500.49481     -367.02452    
     40800   496.30917      290.31677    
     40900   492.75652     -436.29724    
     41000   498.11617      386.1992     
     41100   500.78533     -384.90021    
     41200   501.65242      312.96924    
     41300   501.05457     -365.1212     
     41400   502.22074      131.70556    
     41500   504.38004      115.01356    
     41600   497.37198     -91.172935    
     41700   505.24647      57.983883    
     41800   508.1003      -279.30117    
     41900   499.11144      384.97593    
     42000   498.19952     -27.865806    
     42100   497.31391      127.8008     
     42200   499.84156     -229.50735    
     42300   497.12327     -118.45356    
     42400   495.82727     -224.77713    
     42500   502.06678      31.468836    
     42600   495.8652      -211.69882    
     42700   500.57194      436.03583    
     42800   505.81845     -345.3512     
     42900   499.07239     -155.16763    
     43000   500.51552     -63.159733    
     43100   497.36041      321.63015    
     43200   499.28887     -150.91239    
     43300   499.60433     -49.558426    
     43400   500.14595     -63.273057    
     43500   503.23985     -12.368121    
     43600   497.52606      318.18096    
     43700   502.85586     -229.70279    
     43800   499.68177      350.38394    
     43900   502.25854      15.464198    
     44000   499.57371     -34.692704    
     44100   497.81587      239.11231    
     44200   498.32757     -81.076496    
     44300   499.64824     -9.5389844    
     44400   498.22376     -16.861417    
     44500   500.02637     -319.54125    
     44600   500.62103      103.90006    
     44700   501.81152      76.710132    
     44800   500.13802     -307.52648    
     44900   494.6149       459.04862    
     45000   497.75418     -229.53487    
     45100   500.82533     -35.53038     
     45200   497.34261     -232.86527    
     45300   494.98891      192.28046    
     45400   500.65143     -264.47858    
     45500   499.5917       114.79049    
     45600   497.31035      46.008419    
     45700   505.96719     -279.08833    
     45800   495.00687      45.27011     
     45900   504.27132      322.00769    
     46000   500.39642     -554.07219    
     46100   505.0125       150.38315    
     46200   505.89963     -160.02415    
     46300   499.04458      317.9591     
     46400   498.34617     -239.80045    
     46500   497.44816      205.56907    
     46600   502.83519      35.786949    
     46700   501.34949     -81.54811     
     46800   501.61554      240.92128    
     46900   496.45343     -129.9113     
     47000   498.19732     -297.91692    
     47100   501.04939      114.20692    
     47200   497.88057     -47.893785    
     47300   506.43268     -273.85425    
     47400   501.24557      131.88403    
     47500   499.83407     -114.53083    
     47600   501.92953      291.8217     
     47700   500.23139     -192.65234    
     47800   497.92884      77.543031    
     47900   501.54056     -11.667898    
     48000   496.16765     -191.35019    
     48100   502.0402       172.10125    
     48200   498.18457     -378.37601    
     48300   498.31537      480.09734    
     48400   500.26572     -237.15705    
     48500   498.4044       177.06338    
     48600   495.7856      -86.4994      
     48700   498.61834      139.72387    
     48800   499.80393     -522.51764    
     48900   502.27734      348.45857    
     49000   501.60725     -277.45384    
     49100   498.30381      79.108552    
     49200   500.6231      -165.63669    
     49300   498.23949     -148.91772    
     49400   500.49805      80.774976    
     49500   503.43113     -439.1897     
     49600   500.10887      503.71816    
     49700   502.81363     -599.70017    
     49800   499.60186      187.71348    
     49900   498.61246     -75.341221    
     50000   493.55893     -219.44392    
Loop time of 95.2808 on 4 procs for 50000 steps with 10000 atoms

Performance: 22.670 ns/day, 1.059 hours/ns, 524.765 timesteps/s, 5.248 Matom-step/s
7.9% CPU use with 4 MPI tasks x 1 OpenMP threads

MPI task timing breakdown:
Section |  min time  |  avg time  |  max time  |%varavg| %total
---------------------------------------------------------------
Pair    | 27.005     | 44.719     | 55.594     | 173.8 | 46.93
Bond    | 8.1546     | 11.974     | 14.339     |  70.1 | 12.57
Neigh   | 14.239     | 14.241     | 14.245     |   0.1 | 14.95
Comm    | 6.245      | 19.585     | 41.319     | 320.2 | 20.56
Output  | 0.009294   | 0.010096   | 0.01159    |   0.9 |  0.01
Modify  | 4.1675     | 4.3938     | 4.5433     |   7.1 |  4.61
Other   |            | 0.3574     |            |       |  0.38

Nlocal:           2500 ave        2791 max        1749 min
Histogram: 1 0 0 0 0 0 0 0 0 3
Nghost:         6267.5 ave        6507 max        6096 min
Histogram: 1 1 0 0 0 1 0 0 0 1
Neighs:         199968 ave      225003 max      142476 min
Histogram: 1 0 0 0 0 0 0 0 1 2

Total # of neighbors = 799870
Ave neighs/atom = 79.987
Ave special neighs/atom = 5.988
Neighbor list builds = 2500
Dangerous builds = 0
unfix 1
unfix 2
write_restart 	restart.${simname}.dreiding2
write_restart 	restart.PE_nc10_cl1000.dreiding2
System init for write_restart ...
Generated 0 of 0 mixed pair_coeff terms from geometric mixing rule

#####################################################
# Equilibration Stage 3 (NPT dynamics from 500 K --> 100 K)
fix		1 all npt temp 500 100 50 iso 0 0 1000 drag 2
fix		2 all momentum 1 linear 1 1 1
thermo_style	custom step temp press
thermo          10
timestep	0.5
reset_timestep 	0
run		50000
Generated 0 of 0 mixed pair_coeff terms from geometric mixing rule
WARNING: Inconsistent image flags (src/domain.cpp:1051)
Per MPI rank memory allocation (min/avg/max) = 7.861 | 8.452 | 9 Mbytes
   Step          Temp          Press     
         0   493.55893     -219.44392    
        10   495.32507     -423.87453    
        20   499.10334     -383.87001    
        30   497.24439     -196.96086    
        40   498.55667     -11.188682    
        50   500.72727     -37.16922     
        60   498.47974     -298.7454     
        70   501.29328     -492.67818    
        80   503.74819     -437.56785    
        90   500.59145     -190.70687    
       100   499.94876      74.366496    
       110   500.01738      111.85303    
       120   495.77437     -133.88347    
       130   493.46571     -393.44718    
       140   497.62953     -391.11679    
       150   497.60846     -183.486      
       160   496.11345      66.886128    
       170   500.0825       202.41204    
       180   498.20925      74.466164    
       190   496.4842      -118.26636    
       200   502.50867     -99.892546    
       210   504.22672      87.936488    
       220   505.36715      322.02503    
       230   509.49385      427.88133    
       240   507.03015      258.52689    
       250   501.4092      -19.026993    
       260   500.85883     -117.74301    
       270   500.56535     -0.29083642   
       280   499.27733      190.36756    
       290   500.02719      270.4729     
       300   502.19768      132.29852    
       310   501.1284      -149.14211    
       320   498.73085     -313.83269    
       330   502.44311     -175.41545    
       340   503.39717      59.620949    
       350   500.40201      120.09841    
       360   503.90313     -25.799764    
       370   501.56007     -324.88404    
       380   495.69532     -503.15273    
       390   499.47508     -342.36942    
       400   499.41065     -76.577438    
       410   498.516        62.211088    
       420   504.39187     -10.865129    
       430   503.25525     -298.70082    
       440   500.46636     -506.12475    
       450   500.72859     -408.58124    
       460   497.86298     -89.135878    
       470   497.27272      236.14204    
       480   498.41789      297.76866    
       490   498.54679      68.026187    
       500   498.12966     -184.18077    
       510   496.57618     -192.38995    
       520   494.9749       63.758544    
       530   494.96412      323.24775    
       540   495.37644      299.73089    
       550   496.25667      41.806306    
       560   499.29596     -127.65742    
       570   500.03462     -51.883787    
       580   498.45762      162.94259    
       590   498.71598      296.99201    
       600   498.67211      194.86882    
       610   496.96072     -31.297001    
       620   499.28595     -91.399755    
       630   501.16463      63.547234    
       640   498.36505      257.78539    
       650   498.52531      340.11273    
       660   497.09891      187.46535    
       670   493.15095     -70.50861     
       680   494.13191     -136.94893    
       690   495.20462      28.821335    
       700   493.33078      239.72014    
       710   496.54376      312.03816    
       720   499.52051      110.30019    
       730   495.14873     -245.18079    
       740   497.60035     -359.41086    
       750   500.82786     -164.15319    
       760   496.03906      107.40352    
       770   499.04297      275.9142     
       780   501.25491      114.4448     
       790   494.75253     -300.06313    
       800   496.14886     -523.32782    
       810   498.0522      -407.32679    
       820   493.4111      -103.89549    
       830   497.88697      191.2642     
       840   500.83881      150.11736    
       850   496.49428     -222.05782    
       860   499.03489     -521.44288    
       870   499.37824     -541.65289    
       880   495.5216      -274.25403    
       890   494.44957      97.730209    
       900   493.36737      255.49741    
       910   493.74742      87.53251     
       920   491.84639     -274.65909    
       930   493.18134     -475.40388    
       940   497.95265     -336.98034    
       950   494.97051     -41.064796    
       960   495.58429      234.90511    
       970   497.86441      249.03489    
       980   493.75029     -37.010522    
       990   495.5856      -262.89513    
      1000   497.18972     -250.18282    
      1010   494.76424     -32.025964    
      1020   497.03011      257.34066    
      1030   496.41469      340.16167    
      1040   493.12669      209.93937    
      1050   493.80203      93.922102    
      1060   493.66197      67.640284    
      1070   493.58859      109.04876    
      1080   494.57653      151.61105    
      1090   494.30299      138.57867    
      1100   492.84171      102.85335    
      1110   491.79547      99.738922    
      1120   493.51435      117.90907    
      1130   493.14209      67.510646    
      1140   492.74729     -33.986611    
      1150   495.76359     -116.2308     
      1160   494.55354     -170.52557    
      1170   492.98111     -109.97073    
      1180   495.86893      66.175994    
      1190   495.02294      162.30818    
      1200   494.71769      97.254203    
      1210   497.2671      -94.391836    
      1220   494.55639     -306.20763    
      1230   493.61609     -297.0544     
      1240   494.98298     -55.812069    
      1250   492.95636      176.52114    
      1260   491.98057      207.84818    
      1270   493.11452     -12.05152     
      1280   492.41837     -336.08119    
      1290   490.38643     -478.33809    
      1300   493.33954     -260.38451    
      1310   495.26291      115.78725    
      1320   493.52503      328.29135    
      1330   494.36264      249.34325    
      1340   491.42782     -62.966182    
      1350   487.5589      -289.54407    
      1360   489.33596     -179.17977    
      1370   489.99216      130.99875    
      1380   492.15959      397.65327    
      1390   494.91659      409.79255    
      1400   490.9446       134.05231    
      1410   489.38118     -130.82274    
      1420   488.11521     -179.57839    
      1430   484.6855      -6.5665561    
      1440   489.15873      293.43523    
      1450   492.26213      427.9851     
      1460   493.0187       298.08708    
      1470   496.29597      40.270527    
      1480   493.74484     -204.32389    
      1490   492.29039     -218.92854    
      1500   492.72485     -1.7935778    
      1510   492.07887      237.44173    
      1520   494.75906      302.16355    
      1530   494.79662      80.289095    
      1540   494.79262     -228.52644    
      1550   495.0161      -362.75602    
      1560   492.06891     -258.75822    
      1570   495.10581      2.387183     
      1580   494.76272      123.81202    
      1590   490.65672      29.076753    
      1600   495.89035     -82.005246    
      1610   493.88573     -205.04836    
      1620   489.54947     -230.03669    
      1630   495.11156     -81.776535    
      1640   490.05546      15.82083     
      1650   485.99857      91.237403    
      1660   490.67818      135.73475    
      1670   486.33629     -5.7624686    
      1680   484.63093     -147.49181    
      1690   487.70665     -145.41223    
      1700   485.57249     -31.970519    
      1710   487.17887      181.96144    
      1720   487.96664      311.89957    
      1730   486.70732      255.45518    
      1740   489.17327      92.090949    
      1750   487.08251     -96.235927    
      1760   486.84401     -105.41134    
      1770   491.11738      95.734556    
      1780   487.87945      258.20315    
      1790   487.01849      271.54337    
      1800   490.07611      89.62352     
      1810   486.39494     -213.52574    
      1820   484.60122     -316.99667    
      1830   488.47964     -112.37462    
      1840   488.61834      143.87881    
      1850   487.06619      218.28237    
      1860   489.71545      64.751853    
      1870   489.62357     -232.19482    
      1880   485.68015     -432.53656    
      1890   487.09492     -351.97915    
      1900   489.74123     -147.79393    
      1910   488.82827     -75.232266    
      1920   491.10261     -189.05405    
      1930   491.87051     -420.31113    
      1940   487.28445     -571.51583    
      1950   486.03772     -463.63927    
      1960   485.3181      -221.7013     
      1970   482.89552     -50.987336    
      1980   484.25774     -15.876409    
      1990   485.99497     -92.597546    
      2000   487.07875     -139.56517    
      2010   488.10903     -54.638162    
      2020   488.64339      121.81448    
      2030   487.77046      264.78735    
      2040   485.8776       278.98571    
      2050   487.2867       207.46673    
      2060   488.24815      140.99728    
      2070   486.86409      169.62575    
      2080   489.66699      319.40823    
      2090   490.76221      405.91338    
      2100   488.0578       293.27946    
      2110   489.22202      75.396112    
      2120   490.48836     -110.60073    
      2130   487.69065     -164.38922    
      2140   488.1647      -63.193226    
      2150   489.72033     -13.275554    
      2160   485.58322     -225.34754    
      2170   483.89774     -554.76002    
      2180   486.51584     -719.61652    
      2190   486.87625     -591.3704     
      2200   487.02612     -255.41611    
      2210   487.47694     -29.142688    
      2220   487.81511     -157.05052    
      2230   485.70308     -535.95926    
      2240   480.64774     -768.89521    
      2250   484.61552     -491.51677    
      2260   486.5789       53.6629      
      2270   481.20098      380.81278    
      2280   487.67207      339.05767    
      2290   489.60988     -79.836124    
      2300   480.77961     -480.9272     
      2310   484.26591     -309.3572     
      2320   486.24657      252.54302    
      2330   479.69175      697.84093    
      2340   482.71637      785.20511    
      2350   484.81763      435.55347    
      2360   480.66091     -29.184543    
      2370   481.14755     -95.926759    
      2380   482.0883       293.7615     
      2390   481.49235      772.12883    
      2400   482.19485      913.61052    
      2410   482.58945      568.91274    
      2420   483.55736      25.462703    
      2430   483.76317     -265.12482    
      2440   482.43195     -84.498916    
      2450   483.7148       367.92786    
      2460   485.73894      613.43278    
      2470   484.60349      353.77304    
      2480   485.7951      -192.4651     
      2490   488.04753     -569.71312    
      2500   486.16222     -503.06254    
      2510   486.6969      -59.626974    
      2520   488.09462      319.77851    
      2530   486.14627      232.82919    
      2540   485.28683     -251.37824    
      2550   483.77984     -710.13398    
      2560   482.13773     -723.97776    
      2570   482.05521     -283.07836    
      2580   481.75951      189.63567    
      2590   482.73848      258.41002    
      2600   481.63513     -167.11014    
      2610   479.20822     -674.67961    
      2620   479.94332     -756.63538    
      2630   477.77379     -388.28291    
      2640   475.19048      88.309658    
      2650   478.86547      266.81033    
      2660   479.03283     -82.972666    
      2670   476.94563     -626.30377    
      2680   481.46586     -793.60427    
      2690   482.92629     -485.94056    
      2700   480.1516       17.507717    
      2710   481.67023      358.16338    
      2720   482.58392      270.31644    
      2730   480.43852     -105.45913    
      2740   481.16515     -336.97486    
      2750   483.84137     -205.68177    
      2760   483.76911      142.08732    
      2770   482.53974      425.05527    
      2780   482.28519      424.29753    
      2790   481.43228      134.89591    
      2800   478.03024     -199.98682    
      2810   477.65962     -274.39021    
      2820   481.16172     -65.096845    
      2830   479.81112      158.12594    
      2840   479.23532      222.70227    
      2850   484.17831      103.58553    
      2860   479.79984     -164.22221    
      2870   476.3661      -267.14086    
      2880   481.21371     -73.293761    
      2890   476.58958      122.11659    
      2900   476.78137      199.53311    
      2910   483.11963      79.760684    
      2920   480.09115     -197.3366     
      2930   484.48005     -241.97137    
      2940   486.05873     -56.999904    
      2950   481.10707      153.57607    
      2960   484.30891      249.12524    
      2970   479.59348      15.443737    
      2980   475.65825     -291.08763    
      2990   481.88184     -331.41194    
      3000   479.84174     -182.22706    
      3010   479.16701      53.253615    
      3020   484.88048      154.52318    
      3030   480.94614     -78.759827    
      3040   478.01199     -341.36443    
      3050   480.17735     -318.61805    
      3060   478.95664     -40.347442    
      3070   479.08091      279.16511    
      3080   480.33052      335.81966    
      3090   481.768        68.981391    
      3100   481.56037     -268.45495    
      3110   478.86856     -337.71549    
      3120   479.12655     -10.820986    
      3130   479.06815      408.37762    
      3140   477.98149      530.05282    
      3150   479.54865      251.57791    
      3160   479.4258      -230.19975    
      3170   478.76074     -519.52262    
      3180   478.51741     -398.84009    
      3190   476.86937     -24.022189    
      3200   477.48781      264.89589    
      3210   474.84104      145.52011    
      3220   472.93572     -290.19416    
      3230   478.19255     -635.47603    
      3240   476.01783     -658.99263    
      3250   475.96697     -268.58889    
      3260   482.58705      216.58369    
      3270   478.52362      266.60649    
      3280   476.66391     -60.695166    
      3290   478.6656      -431.31753    
      3300   473.82968     -558.94898    
      3310   472.36138     -272.08266    
      3320   473.36003      145.30967    
      3330   473.42388      286.55772    
      3340   475.24629      47.978308    
      3350   474.40898     -362.37264    
      3360   477.03052     -501.22981    
      3370   479.09778     -237.6141     
      3380   475.6403       152.55989    
      3390   477.96702      367.69125    
      3400   476.19046      167.64425    
      3410   471.72018     -232.96952    
      3420   473.26737     -416.49557    
      3430   474.09217     -281.05115    
      3440   475.19933      27.909503    
      3450   473.31311      202.98352    
      3460   473.77266      134.2112     
      3470   475.22645     -100.98808    
      3480   470.8178      -313.8471     
      3490   473.03795     -228.25227    
      3500   475.93263      32.237407    
      3510   473.91477      170.52034    
      3520   475.65014      103.1155     
      3530   475.47502     -114.84262    
      3540   473.83827     -241.77412    
      3550   474.2876      -118.5434     
      3560   473.24572      116.51799    
      3570   475.06043      266.1315     
      3580   475.30286      179.66964    
      3590   473.61326     -39.609881    
      3600   475.40836     -141.64428    
      3610   473.6839      -76.230064    
      3620   473.37834      115.21582    
      3630   476.33125      263.58339    
      3640   474.24146      178.44228    
      3650   475.30207     -21.209051    
      3660   475.87851     -175.49363    
      3670   472.64444     -157.29187    
      3680   475.17032      87.497261    
      3690   473.94078      284.78368    
      3700   472.55151      253.67277    
      3710   477.75341      27.412988    
      3720   475.8134      -283.31366    
      3730   474.59679     -339.9457     
      3740   477.65605     -71.960866    
      3750   473.5031       180.7221     
      3760   472.71589      222.65136    
      3770   473.68362      4.0689536    
      3780   471.22775     -277.80342    
      3790   473.42919     -283.6175     
      3800   473.28784     -40.470988    
      3810   472.18395      222.26493    
      3820   473.47533      269.56356    
      3830   469.67287      13.472115    
      3840   469.5984      -243.37201    
      3850   471.86693     -251.88185    
      3860   469.22557     -40.945733    
      3870   470.98785      240.12186    
      3880   473.55812      312.01343    
      3890   470.75911      94.110007    
      3900   471.98809     -124.26343    
      3910   475.86638     -118.12656    
      3920   474.71548      81.388475    
      3930   475.41282      335.38372    
      3940   477.87215      412.87723    
      3950   474.25577      214.37691    
      3960   471.78609      2.2152667    
      3970   472.35161      22.740709    
      3980   471.10554      251.2673     
      3990   469.53642      488.34149    
      4000   469.8296       516.13051    
      4010   469.81688      281.62712    
      4020   466.94978     -21.574047    
      4030   466.8875      -85.296844    
      4040   470.5408       149.66733    
      4050   471.1094       407.39452    
      4060   471.48518      420.47013    
      4070   474.61802      148.13223    
      4080   472.33258     -226.41423    
      4090   467.74478     -352.7791     
      4100   468.42127     -96.296045    
      4110   467.66359      219.27106    
      4120   466.64577      242.02785    
      4130   468.36909     -93.152584    
      4140   469.66716     -545.6338     
      4150   471.05114     -741.12008    
      4160   471.06948     -534.6021     
      4170   472.31792     -109.24509    
      4180   474.7317       127.48383    
      4190   472.4185      -103.08208    
      4200   471.9944      -561.8144     
      4210   473.07497     -809.07815    
      4220   470.50142     -601.49874    
      4230   469.5271      -51.155559    
      4240   469.68039      359.82652    
      4250   467.43618      250.69909    
      4260   465.11644     -237.34171    
      4270   465.88068     -609.11452    
      4280   467.34047     -514.33327    
      4290   466.65824     -27.109185    
      4300   469.56784      484.2337     
      4310   473.33466      571.49295    
      4320   470.20634      117.79416    
      4330   468.876       -414.50634    
      4340   471.01847     -526.20199    
      4350   466.97492     -149.69536    
      4360   466.47802      479.58569    
      4370   469.3241       837.46357    
      4380   466.46874      572.9523     
      4390   468.178        11.593679    
      4400   469.22294     -345.7661     
      4410   468.04447     -171.58651    
      4420   472.14684      444.76583    
      4430   471.44034      921.11446    
      4440   470.97809      880.73403    
      4450   471.78523      374.84894    
      4460   465.36367     -203.36088    
      4470   464.36869     -298.09086    
      4480   464.788        97.719319    
      4490   460.22103      529.47983    
      4500   464.29917      632.75436    
      4510   467.1696       216.71589    
      4520   463.29635     -412.85729    
      4530   467.91467     -656.93844    
      4540   468.48475     -447.70832    
      4550   465.88158     -31.062718    
      4560   471.14749      256.96577    
      4570   470.31093      76.621419    
      4580   469.8417      -350.44388    
      4590   471.35399     -611.97005    
      4600   467.7571      -527.1554     
      4610   471.39675     -141.4244     
      4620   470.6108       88.33535     
      4630   467.30682     -42.651856    
      4640   472.32359     -329.40495    
      4650   467.6717      -599.28122    
      4660   464.83161     -551.29289    
      4670   468.86184     -228.88964    
      4680   465.17461     -28.156675    
      4690   464.06201     -56.908875    
      4700   465.75327     -238.78387    
      4710   465.63313     -379.29423    
      4720   466.70265     -315.59609    
      4730   466.31213     -139.77402    
      4740   467.48286     -14.442673    
      4750   469.48308     -61.715713    
      4760   466.36407     -250.43137    
      4770   467.85917     -323.9046     
      4780   469.75323     -238.30694    
      4790   465.36283     -123.62111    
      4800   466.63863     -24.070295    
      4810   466.91948     -69.34777     
      4820   462.59869     -220.2604     
      4830   463.38226     -253.91827    
      4840   464.17755     -147.47547    
      4850   463.47391      3.5224054    
      4860   464.26752      86.151346    
      4870   464.90275      35.146036    
      4880   465.38784     -74.348677    
      4890   463.92641     -122.2778     
      4900   464.24327     -14.311821    
      4910   466.53197      146.56458    
      4920   464.84453      129.79264    
      4930   464.67236     -60.021798    
      4940   464.53667     -269.87072    
      4950   461.8287      -322.81752    
      4960   463.44748     -139.78451    
      4970   463.62814      45.093493    
      4980   463.80047      41.446328    
      4990   466.24034     -122.35297    
      5000   464.22299     -302.47414    
      5010   465.18923     -273.59083    
      5020   466.42764     -74.444656    
      5030   462.54492      95.567313    
      5040   463.78154      161.23175    
      5050   465.40792      47.714273    
      5060   464.32322     -158.29851    
      5070   464.86458     -265.48846    
      5080   463.84835     -222.55156    
      5090   461.58632     -77.7038      
      5100   457.23616      9.3545129    
      5110   455.28555     -54.711141    
      5120   458.11368     -235.2812     
      5130   457.63429     -448.12535    
      5140   459.63221     -469.91783    
      5150   464.32319     -251.17959    
      5160   460.3658      -30.507792    
      5170   459.3166       78.863054    
      5180   460.46128     -3.5477962    
      5190   457.551       -216.6816     
      5200   458.15909     -297.88723    
      5210   458.35167     -165.51991    
      5220   458.64043      87.39301     
      5230   455.85639      222.29408    
      5240   453.22941      152.42071    
      5250   459.36316      20.584092    
      5260   458.50688     -115.58835    
      5270   459.32322     -48.589839    
      5280   467.83105      204.43925    
      5290   462.93823      269.50634    
      5300   459.53989      170.09349    
      5310   462.66272      36.230994    
      5320   455.89423     -113.61738    
      5330   456.33274     -75.082436    
      5340   462.76352      68.915864    
      5350   458.79835      81.665984    
      5360   459.9921       75.057259    
      5370   461.62244      50.10359     
      5380   456.74838     -31.019168    
      5390   459.16347     -48.021852    
      5400   462.30363     -30.765322    
      5410   462.82524      8.2751524    
      5420   465.61065      80.726921    
      5430   466.00672      89.135663    
      5440   463.03452     -11.484396    
      5450   458.43385     -175.03261    
      5460   455.82878     -285.59454    
      5470   453.69658     -269.17037    
      5480   450.75931     -124.89793    
      5490   454.56547      86.114308    
      5500   458.11376      128.71986    
      5510   456.39854     -82.155847    
      5520   460.6004      -292.84942    
      5530   462.77874     -334.56889    
      5540   459.07808     -159.50958    
      5550   461.49406      161.08167    
      5560   461.89583      306.63223    
      5570   458.05294      170.47775    
      5580   459.58806     -35.263048    
      5590   459.44002     -145.78138    
      5600   457.7247      -36.895071    
      5610   460.65831      242.98079    
      5620   460.56729      405.45651    
      5630   459.40891      346.32982    
      5640   462.1804       190.41359    
      5650   459.67099      53.993696    
      5660   457.6895       111.13304    
      5670   460.16558      335.10811    
      5680   457.5089       463.34406    
      5690   455.30991      421.34558    
      5700   458.22736      262.0289     
      5710   456.7866       13.529654    
      5720   455.81895     -121.99739    
      5730   461.62756      7.9982921    
      5740   461.52786      212.52466    
      5750   459.2619       318.59333    
      5760   460.92966      230.9397     
      5770   458.58097     -79.527601    
      5780   454.22378     -373.23055    
      5790   453.76949     -384.06774    
      5800   456.63197     -134.20143    
      5810   456.11307      95.640942    
      5820   454.87155      112.56892    
      5830   459.23243     -66.263675    
      5840   457.1421      -366.09485    
      5850   453.11001     -495.22883    
      5860   457.77129     -269.09605    
      5870   456.67459      25.05182     
      5880   453.26563      155.14606    
      5890   457.37989      98.90438     
      5900   455.42686     -117.52588    
      5910   453.04005     -202.55357    
      5920   458.08593      10.978442    
      5930   456.91015      262.27699    
      5940   457.12606      376.06703    
      5950   460.43695      282.76243    
      5960   456.75924      29.064957    
      5970   456.68828     -93.302392    
      5980   458.13725     -0.13411072   
      5990   455.49415      173.39803    
      6000   456.34987      300.24467    
      6010   458.37504      239.83709    
      6020   455.68076     -21.517361    
      6030   453.99789     -278.2632     
      6040   455.11657     -348.02485    
      6050   451.97682     -240.71142    
      6060   452.72025     -9.9941349    
      6070   457.65879      139.00697    
      6080   456.02451     -9.5045391    
      6090   456.63115     -297.61099    
      6100   458.65459     -493.61924    
      6110   454.9671      -483.89993    
      6120   454.38964     -246.03518    
      6130   454.91579     -33.66347     
      6140   451.67565     -104.39922    
      6150   449.41221     -394.13837    
      6160   449.26865     -640.11572    
      6170   450.51248     -621.42703    
      6180   451.13311     -360.52501    
      6190   451.95718     -67.943765    
      6200   455.95856      50.804723    
      6210   453.59228     -104.26238    
      6220   449.88555     -297.83191    
      6230   453.80194     -268.60364    
      6240   452.0612      -109.80226    
      6250   449.34623      92.964233    
      6260   455.11936      261.84703    
      6270   454.94714      211.76275    
      6280   451.9774       47.551353    
      6290   456.13873     -15.734029    
      6300   454.45012     -11.78451     
      6310   448.99531      62.106397    
      6320   451.56049      217.00721    
      6330   451.53367      261.65706    
      6340   446.97646      145.77619    
      6350   449.9311       29.640639    
      6360   452.40047     -69.082682    
      6370   449.14484     -139.53057    
      6380   450.93615     -77.885372    
      6390   453.51532      18.973444    
      6400   449.12019     -11.201683    
      6410   449.12318     -95.02734     
      6420   452.82722     -178.70283    
      6430   449.2341      -272.61829    
      6440   449.26677     -229.54513    
      6450   453.14257     -79.040004    
      6460   449.65249     -6.8613144    
      6470   449.31044      22.081059    
      6480   453.20856      18.905906    
      6490   451.76466     -68.58203     
      6500   451.03966     -129.88161    
      6510   453.93316     -94.50618     
      6520   453.76451     -35.888768    
      6530   450.52321      3.4313176    
      6540   451.4951       45.476286    
      6550   454.75847      37.265521    
      6560   451.74342     -86.748416    
      6570   450.26506     -200.644      
      6580   454.15663     -213.99264    
      6590   450.44553     -201.83199    
      6600   448.42484     -96.827577    
      6610   451.78983      52.751175    
      6620   448.48618      55.185295    
      6630   447.12157     -37.538498    
      6640   450.11561     -141.76956    
      6650   449.10019     -222.20565    
      6660   450.13794     -172.65536    
      6670   452.11781     -67.214111    
      6680   450.55168     -54.004829    
      6690   449.90516     -131.28045    
      6700   450.1427      -238.89486    
      6710   447.33363     -309.35548    
      6720   445.68277     -263.82943    
      6730   447.48569     -134.24778    
      6740   446.19973     -43.881326    
      6750   445.25615     -1.52912      
      6760   450.29784      2.9692676    
      6770   447.86325     -142.03077    
      6780   444.77491     -290.70276    
      6790   452.69925     -241.33825    
      6800   450.11872     -151.00396    
      6810   444.63705     -36.540435    
      6820   452.32152      96.441161    
      6830   449.17262     -29.484532    
      6840   442.9895      -250.90929    
      6850   451.87937     -228.61101    
      6860   450.61367     -91.489295    
      6870   444.48918      108.70764    
      6880   450.81233      327.51953    
      6890   449.14783      270.37649    
      6900   443.97569      47.308479    
      6910   448.26335     -23.678525    
      6920   449.8147       75.594442    
      6930   449.13817      258.97608    
      6940   451.05965      370.68388    
      6950   452.70938      275.83713    
      6960   451.93347      40.874259    
      6970   448.50717     -132.27133    
      6980   448.57631     -70.962689    
      6990   448.89582      129.3213     
      7000   444.98911      250.35683    
      7010   446.27613      226.54563    
      7020   446.6376       21.571762    
      7030   443.5093      -217.90935    
      7040   446.77225     -232.91379    
      7050   447.30942     -64.292092    
      7060   446.91142      158.5459     
      7070   450.79636      274.62802    
      7080   449.23857      123.82322    
      7090   448.11731     -129.92958    
      7100   450.26919     -263.64036    
      7110   448.03088     -222.6885     
      7120   447.62387     -4.6810414    
      7130   449.02585      211.43844    
      7140   447.51817      226.48015    
      7150   446.39421      68.157252    
      7160   446.1142      -108.04462    
      7170   445.74226     -146.5337     
      7180   443.86268     -8.9218133    
      7190   444.40135      234.15346    
      7200   447.37132      397.15955    
      7210   445.20115      309.65659    
      7220   445.79279      89.23524     
      7230   449.31921     -108.06708    
      7240   448.18312     -199.08038    
      7250   450.22069     -89.987511    
      7260   450.93013      74.450704    
      7270   447.17043      118.06743    
      7280   446.40374      17.037648    
      7290   443.68901     -234.01367    
      7300   442.29595     -459.44011    
      7310   445.6213      -471.33007    
      7320   444.90427     -298.62948    
      7330   445.87749     -19.313055    
      7340   449.68294      152.97526    
      7350   446.25626      9.843671     
      7360   444.14384     -261.85672    
      7370   447.81919     -371.30835    
      7380   446.51169     -249.05279    
      7390   444.93035      69.57372     
      7400   447.29451      363.64504    
      7410   446.44014      348.38912    
      7420   441.94247      45.773415    
      7430   441.2325      -213.52967    
      7440   444.91233     -171.37152    
      7450   442.593        100.50335    
      7460   441.33579      432.39562    
      7470   446.83301      570.64225    
      7480   442.55094      267.85829    
      7490   437.55525     -190.49892    
      7500   443.78073     -365.05085    
      7510   442.60798     -249.96475    
      7520   440.32406      66.441988    
      7530   447.24508      343.06468    
      7540   446.36567      192.41403    
      7550   442.74615     -266.59396    
      7560   445.31031     -604.85399    
      7570   444.99317     -581.39159    
      7580   443.90263     -183.65178    
      7590   445.6324       270.57607    
      7600   446.7235       341.45656    
      7610   444.46781     -60.899041    
      7620   442.7581      -527.17107    
      7630   443.71359     -585.04487    
      7640   442.43193     -174.83005    
      7650   443.42947      387.65849    
      7660   444.97658      593.13074    
      7670   441.48028      233.45101    
      7680   440.80332     -307.42236    
      7690   438.48953     -577.30489    
      7700   436.4976      -331.52738    
      7710   440.97869      237.14488    
      7720   440.70745      548.07844    
      7730   441.63894      396.42904    
      7740   444.68896     -25.268187    
      7750   440.39142     -367.88688    
      7760   439.20508     -247.639      
      7770   441.35978      216.98613    
      7780   440.42944      547.11889    
      7790   441.84507      486.19799    
      7800   443.23732      98.760577    
      7810   442.97427     -268.3699     
      7820   441.5021      -301.17461    
      7830   438.40913     -27.030769    
      7840   440.13455      284.0973     
      7850   440.32009      290.60987    
      7860   437.25395     -19.279009    
      7870   442.79379     -309.54067    
      7880   443.10107     -444.45546    
      7890   438.28381     -352.72871    
      7900   442.534       -68.852266    
      7910   443.0382       68.525514    
      7920   439.75651     -61.9401      
      7930   442.52183     -295.8391     
      7940   446.03542     -467.27413    
      7950   444.4587      -475.99724    
      7960   443.3985      -307.21719    
      7970   446.70756     -97.940764    
      7980   443.17817     -96.340697    
      7990   439.22887     -243.86302    
      8000   442.20407     -333.3309     
      8010   439.60254     -352.47279    
      8020   438.31172     -244.39943    
      8030   442.72965     -55.207361    
      8040   442.8788       27.876104    
      8050   442.09887     -6.6877599    
      8060   441.63969     -88.308137    
      8070   441.09473     -130.31911    
      8080   439.30409     -98.950853    
      8090   434.78742     -28.580614    
      8100   438.17021      94.984847    
      8110   438.77293      111.62322    
      8120   433.43806      12.484871    
      8130   439.73563      34.173311    
      8140   440.48962      79.994023    
      8150   435.34163      109.75437    
      8160   438.65677      176.51131    
      8170   435.25116      107.96797    
      8180   432.27652     -5.0930598    
      8190   434.43583     -29.135832    
      8200   433.392        11.110844    
      8210   436.76261      126.51599    
      8220   437.00931      166.36468    
      8230   435.93354      95.678435    
      8240   440.24128     -0.22094818   
      8250   436.7024      -124.37192    
      8260   435.12341     -87.856315    
      8270   440.06986      126.14538    
      8280   436.13443      229.86368    
      8290   437.22809      203.34007    
      8300   441.2834       52.650057    
      8310   437.64094     -147.84773    
      8320   439.7216      -133.91694    
      8330   441.15322      27.939357    
      8340   440.05912      152.71793    
      8350   440.08974      124.24968    
      8360   438.64204     -62.841901    
      8370   440.62165     -224.16352    
      8380   437.25512     -297.74605    
      8390   434.47805     -215.98084    
      8400   437.99891     -48.345969    
      8410   434.19127     -45.153875    
      8420   434.54935     -115.80281    
      8430   439.74742     -157.05712    
      8440   437.03266     -205.10989    
      8450   438.39781     -155.28639    
      8460   440.34578     -75.646254    
      8470   437.74998     -43.235467    
      8480   439.38772      12.10038     
      8490   439.29969      28.123906    
      8500   438.22111     -13.185483    
      8510   438.55442     -75.152311    
      8520   435.21894     -146.91438    
      8530   434.01991     -133.61214    
      8540   433.06902     -40.389365    
      8550   432.55005      84.113148    
      8560   434.48952      168.99415    
      8570   434.6068       127.38306    
      8580   436.56492      23.685455    
      8590   436.77717     -62.724157    
      8600   434.26484     -39.267036    
      8610   436.02184      129.53495    
      8620   433.74333      232.74429    
      8630   431.74387      186.16773    
      8640   435.56932      44.027951    
      8650   432.55718     -169.37475    
      8660   430.05807     -239.60869    
      8670   433.97771     -91.331511    
      8680   431.06884      28.68494     
      8690   429.90859      36.353663    
      8700   435.63387     -53.417847    
      8710   434.30529     -235.21844    
      8720   432.39995     -293.78361    
      8730   434.16017     -156.00531    
      8740   432.46044      1.357642     
      8750   429.34299      65.72807     
      8760   429.19793      42.690427    
      8770   430.97921     -30.794888    
      8780   430.02286     -125.10692    
      8790   430.9597      -148.36476    
      8800   435.03648     -81.481418    
      8810   434.25838     -25.212951    
      8820   433.77922      4.4069516    
      8830   434.14603     -31.836011    
      8840   431.11579     -145.5432     
      8850   429.77072     -217.51437    
      8860   428.5566      -207.82628    
      8870   428.34224     -133.33431    
      8880   430.52489     -64.068085    
      8890   430.90724     -81.425363    
      8900   432.63478     -102.75076    
      8910   434.22525     -57.290493    
      8920   431.98242      36.50775     
      8930   432.16447      171.72573    
      8940   433.15096      258.13698    
      8950   432.01756      251.63886    
      8960   431.40607      238.12474    
      8970   432.37094      285.06167    
      8980   432.33207      339.13678    
      8990   428.68277      297.80631    
      9000   430.34402      200.93018    
      9010   433.39846      64.300376    
      9020   429.62522     -77.367391    
      9030   432.69742     -39.477175    
      9040   436.4793       63.757234    
      9050   431.24783      15.186765    
      9060   432.47732     -91.865161    
      9070   434.78955     -220.23321    
      9080   431.59182     -322.81043    
      9090   432.8761      -273.23823    
      9100   433.68057     -180.96249    
      9110   432.78362     -167.7162     
      9120   431.71435     -238.03227    
      9130   429.47437     -335.16402    
      9140   432.69374     -360.60613    
      9150   432.5335      -379.84457    
      9160   430.80226     -363.8411     
      9170   434.89522     -244.04534    
      9180   432.97098     -151.44197    
      9190   429.63945     -109.65223    
      9200   431.46316     -117.71076    
      9210   431.10639     -224.80555    
      9220   429.54755     -309.93848    
      9230   430.41986     -223.23915    
      9240   432.60524      5.444758     
      9250   430.52413      171.9502     
      9260   428.64246      166.90153    
      9270   430.53214      15.328714    
      9280   427.47938     -202.04399    
      9290   426.82571     -234.80272    
      9300   431.8398      -20.323059    
      9310   430.22821      177.02038    
      9320   428.52432      222.9086     
      9330   431.38343      108.38194    
      9340   428.77441     -124.48474    
      9350   427.33225     -221.4797     
      9360   429.73414     -83.505651    
      9370   428.6247       116.09527    
      9380   429.451        242.09185    
      9390   430.31064      170.42049    
      9400   428.12799     -78.675182    
      9410   427.60134     -283.70847    
      9420   426.40639     -294.73608    
      9430   426.47106     -89.484172    
      9440   427.77574      149.03938    
      9450   428.61242      177.61624    
      9460   430.10676     -34.890984    
      9470   428.57443     -312.2045     
      9480   427.17025     -373.49325    
      9490   427.52734     -143.8154     
      9500   424.53623      136.38156    
      9510   424.71962      240.8446     
      9520   425.85757      51.938654    
      9530   424.8319      -287.49044    
      9540   428.0309      -429.31647    
      9550   428.13053     -262.42933    
      9560   426.34879      90.689159    
      9570   428.86071      340.49193    
      9580   426.94911      185.62213    
      9590   426.192       -225.44442    
      9600   428.92893     -523.98387    
      9610   427.77957     -482.6429     
      9620   429.50542     -92.852266    
      9630   431.73538      271.24103    
      9640   429.83446      245.15845    
      9650   429.88376     -124.15822    
      9660   428.82635     -552.90906    
      9670   425.36227     -688.66117    
      9680   425.19492     -384.5444     
      9690   425.17853      61.838069    
      9700   425.29122      244.72932    
      9710   426.77597     -6.6741637    
      9720   426.85032     -511.40417    
      9730   428.0585      -824.32693    
      9740   427.7423      -689.56018    
      9750   426.40583     -215.69189    
      9760   428.28989      222.11382    
      9770   426.25394      210.45945    
      9780   424.44909     -201.00969    
      9790   426.44302     -616.19567    
      9800   423.81749     -704.56946    
      9810   422.7773      -322.35115    
      9820   425.47219      221.94776    
      9830   422.34093      386.59997    
      9840   420.13322      76.347999    
      9850   423.42713     -380.81397    
      9860   421.18548     -622.45423    
      9870   418.4666      -391.79043    
      9880   424.14882      149.50094    
      9890   424.42548      418.63015    
      9900   420.62989      189.11485    
      9910   427.41076     -227.06423    
      9920   426.77007     -569.40324    
      9930   420.12058     -549.79339    
      9940   427.60427     -112.10519    
      9950   427.37435      155.59717    
      9960   422.04867     -1.8721302    
      9970   429.60826     -312.8322     
      9980   426.93361     -608.46011    
      9990   420.18553     -582.68829    
     10000   423.85573     -189.19788    
     10010   420.7125       103.14289    
     10020   420.15052      119.01204    
     10030   425.82111     -68.612174    
     10040   424.31596     -316.2799     
     10050   426.57995     -305.66223    
     10060   428.04566     -59.455588    
     10070   423.11973      183.0726     
     10080   423.81996      299.25523    
     10090   422.95068      172.37817    
     10100   421.38472     -41.426606    
     10110   424.13804     -95.040302    
     10120   423.46625      19.990174    
     10130   423.78084      223.44944    
     10140   423.12728      310.56337    
     10150   420.17734      197.96228    
     10160   420.70755      34.57952     
     10170   419.67478     -70.960917    
     10180   419.54426     -35.126936    
     10190   422.43726      93.462076    
     10200   421.89781      133.31544    
     10210   422.99904      67.445756    
     10220   425.47172     -42.760737    
     10230   423.90981     -129.96494    
     10240   423.93673     -95.510272    
     10250   423.40938     -17.372736    
     10260   421.33269     -23.169257    
     10270   421.44618     -125.98764    
     10280   420.01355     -258.04136    
     10290   421.14436     -257.07538    
     10300   422.31385     -140.22188    
     10310   421.02046     -42.329324    
     10320   423.14917     -21.366442    
     10330   422.41345     -126.78531    
     10340   420.6383      -229.80258    
     10350   423.42549     -182.27393    
     10360   423.40209     -63.735848    
     10370   423.16741      45.766577    
     10380   425.80339      80.68509     
     10390   425.1864      -23.77809     
     10400   423.66085     -162.02165    
     10410   422.65341     -202.14705    
     10420   420.29072     -117.76208    
     10430   419.4618       35.377763    
     10440   419.86017      123.80786    
     10450   421.64282      79.48903     
     10460   422.6223      -63.048829    
     10470   422.55405     -170.72928    
     10480   423.52077     -127.40552    
     10490   420.87912      4.5228549    
     10500   419.61613      151.24116    
     10510   420.55427      210.02509    
     10520   417.68315      101.02189    
     10530   419.28618     -51.741899    
     10540   421.90738     -177.55566    
     10550   419.04681     -231.19445    
     10560   419.23225     -118.65739    
     10570   419.5915       33.788112    
     10580   415.79831      47.993152    
     10590   415.85972     -62.726685    
     10600   416.83951     -242.17373    
     10610   416.12931     -354.18124    
     10620   417.50597     -264.90175    
     10630   418.52198     -45.104893    
     10640   416.54881      120.64697    
     10650   416.59334      127.78244    
     10660   418.12285     -34.28333     
     10670   417.46742     -242.9383     
     10680   419.10409     -273.10396    
     10690   421.38794     -85.583617    
     10700   418.8851       152.21904    
     10710   417.92514      307.39872    
     10720   417.927        262.81701    
     10730   415.08879      33.487138    
     10740   415.68956     -143.1076     
     10750   417.87439     -110.95022    
     10760   417.13914      100.35903    
     10770   416.73486      354.8106     
     10780   416.67877      441.08722    
     10790   415.34453      257.76539    
     10800   414.45011     -42.111776    
     10810   415.74617     -190.10097    
     10820   418.19383     -73.650404    
     10830   417.49553      156.8741     
     10840   416.679        293.99192    
     10850   416.8337       188.19567    
     10860   415.12698     -129.08748    
     10870   415.50029     -384.84954    
     10880   415.80535     -382.80067    
     10890   415.89097     -123.64543    
     10900   416.71275      190.6533     
     10910   414.62913      277.1024     
     10920   415.29583      101.09728    
     10930   416.23259     -185.81054    
     10940   413.16105     -342.10312    
     10950   415.42498     -168.02535    
     10960   416.66301      138.17636    
     10970   413.85668      284.87207    
     10980   417.09867      210.94907    
     10990   416.51449     -63.239725    
     11000   414.26603     -263.07019    
     11010   416.51794     -176.39807    
     11020   414.75526      55.096844    
     11030   414.7266       265.6152     
     11040   415.51308      276.5393     
     11050   413.8748       87.437533    
     11060   415.663       -62.625849    
     11070   416.04055     -65.210121    
     11080   415.57054      66.9413      
     11090   417.5941       214.79171    
     11100   417.95141      193.42066    
     11110   417.26802     -7.2762995    
     11120   418.83405     -225.32794    
     11130   418.23049     -332.39032    
     11140   415.14248     -267.37108    
     11150   415.43977     -78.989384    
     11160   414.75341      3.706335     
     11170   411.4809      -132.48861    
     11180   412.34195     -316.49598    
     11190   414.40078     -354.83987    
     11200   412.47911     -199.40129    
     11210   413.40944      69.228273    
     11220   415.22969      193.15254    
     11230   412.41967      25.124061    
     11240   413.01884     -221.93233    
     11250   414.21659     -322.07827    
     11260   412.3005      -174.79415    
     11270   413.80975      171.48284    
     11280   415.26766      413.12193    
     11290   413.5132       323.08029    
     11300   413.89098      22.626693    
     11310   416.57556     -191.90536    
     11320   414.68039     -122.27057    
     11330   414.32837      245.77863    
     11340   416.01326      585.86434    
     11350   412.46022      536.31674    
     11360   411.55043      187.04481    
     11370   413.80161     -153.78587    
     11380   412.00656     -240.87534    
     11390   412.73521      26.841569    
     11400   415.32754      385.81622    
     11410   413.35403      462.65647    
     11420   412.36925      212.23225    
     11430   414.40359     -158.89262    
[...]
    161400   99.624501     -336.25724      106.44959      13.934309      172.28539      48.422414      50.874644     -13619.324      776.55048      1284.4225      3785.7233    
    161500   100.98816     -81.512068      146.12693      237.02217      172.3513       48.445894      50.879041     -13632.717      794.20029      1249.7695      3775.4686    
    161600   99.748407     -278.33533     -23.593504      140.21032      172.41721      48.45765       50.946177     -13581.684      783.79164      1240.4411      3795.1517    
    161700   100.1541      -432.62258      81.539419      1.8550169      172.48312      48.427812      50.993012     -13592.246      807.94695      1227.2442      3791.6363    
    161800   100.24123     -131.31001      210.24951      276.02521      172.54902      48.377966      50.992357     -13596.79       804.26696      1231.3137      3803.9274    
    161900   100.70831     -243.60624      188.76705      294.84854      172.61493      48.361816      51.004499     -13607.141      788.35464      1240.9775      3804.4841    
    162000   100.04438     -328.49225      116.20289      45.398219      172.68084      48.354364      50.964624     -13600.226      794.56106      1244.7583      3788.4134    
    162100   101.08535     -263.24587      1.4824819     -18.786654      172.74675      48.352699      50.98734      -13612.43       798.09131      1236.4882      3787.6578    
    162200   100.3077      -620.91234     -32.178487     -199.91873      172.81266      48.353206      51.07299      -13627.875      796.47189      1232.7165      3819.7013    
    162300   100.33816     -444.20642      99.913619      161.98938      172.87857      48.319587      51.020548     -13644.833      813.11336      1249.6815      3807.6423    
    162400   100.25811     -482.79224      110.24113     -115.93363      172.94448      48.318566      51.007024     -13616.223      782.58269      1263.2372      3803.1724    
    162500   99.227142     -390.76934     -66.438227     -126.72484      173.01039      48.330731      50.995768     -13616.362      793.90507      1254.7388      3832.3625    
    162600   100.78474     -372.32177     -110.15138      198.68673      173.07629      48.336119      50.961783     -13636.606      786.47543      1250.9413      3825.4845    
    162700   98.774347     -435.34542      427.34353      316.23445      173.1422       48.331111      50.953421     -13593.523      804.03745      1261.3326      3817.9563    
    162800   99.929323     -538.93394     -6.8372409      94.029175      173.20811      48.367616      50.992138     -13601.511      795.38263      1241.05        3820.0644    
    162900   99.336673     -369.50468     -79.215765     -68.530557      173.27402      48.363141      51.005299     -13571.874      788.44151      1245.8116      3816.7617    
    163000   100.64889     -462.13005     -32.918629     -150.73553      173.33993      48.382679      51.01088      -13620.889      794.45626      1250.8746      3813.7588    
    163100   98.945421     -701.26163      100.25392     -44.078282      173.40584      48.363043      50.954961     -13582.86       795.55147      1273.4011      3796.1225    
    163200   100.2166      -409.47881      26.940979      26.746781      173.47175      48.366766      50.940376     -13601.923      796.47457      1237.1451      3807.3262    
    163300   99.265547     -565.77841     -240.25263      54.800108      173.53766      48.406699      50.947033     -13600.391      807.26326      1245.4051      3817.7213    
    163400   99.633977     -416.73176     -195.88931     -115.7981       173.60356      48.417569      50.974836     -13574.334      793.28927      1274.0652      3777.2597    
    163500   100.33332     -529.81436      90.147792     -80.59432       173.66947      48.40947       50.992214     -13586.807      794.85319      1248.1995      3798.2604    
    163600   99.841522     -644.72655      170.06975      68.198396      173.73538      48.404562      50.994432     -13561.253      812.62906      1234.4171      3789.9135    
    163700   100.52984     -638.16145     -163.76751     -5.2751807      173.80129      48.382266      51.006552     -13596.616      792.80415      1241.1942      3811.0727    
    163800   99.725551     -255.86962     -94.978395     -137.33702      173.8672       48.374139      50.970649     -13590.339      822.28228      1255.1213      3781.5914    
    163900   100.07268     -545.6343       80.690706     -28.125388      173.93311      48.404143      50.982913     -13566.127      798.7759       1237.5426      3794.0371    
    164000   100.30958     -303.86375      71.636461     -92.472947      173.99902      48.431342      50.986759     -13598.262      810.52905      1237.6659      3807.8687    
    164100   99.937779     -430.98875      58.103371      73.171231      174.06493      48.404097      50.957327     -13569.875      798.43448      1242.2055      3790.634     
    164200   99.415268     -522.1493      -77.467729      1.4156596      174.13083      48.392114      50.916454     -13594.528      795.5532       1256.8821      3813.0214    
    164300   99.468034     -360.49704      23.143297      26.996512      174.19674      48.387587      50.918719     -13583.348      808.00548      1265.4306      3789.3276    
    164400   98.642233     -491.21391      151.84811      142.88668      174.26265      48.410348      50.962007     -13579.223      800.52288      1261.8283      3826.5894    
    164500   100.50145     -569.8378       40.271818     -74.831076      174.32856      48.398343      51.026987     -13592.834      787.18823      1239.5688      3823.4234    
    164600   100.74077     -696.2321      -67.664733     -52.193102      174.39447      48.371941      51.030721     -13587.721      779.62922      1251.2444      3806.1525    
    164700   99.770389     -391.65169      26.699661     -57.234633      174.46038      48.36399       51.030611     -13585.843      797.84474      1242.4175      3822.8663    
    164800   99.330694     -391.08103      11.609324      14.835532      174.52629      48.380101      51.039225     -13591.335      808.53755      1238.8944      3824.5387    
    164900   99.266905     -497.77729     -100.81088     -46.242974      174.59219      48.383625      51.037806     -13600.465      812.25723      1259.9561      3804.6004    
    165000   99.028844     -680.12386      95.815129     -47.676114      174.6581       48.392009      50.996679     -13591.149      810.68698      1264.4743      3804.3537    
    165100   99.393218     -418.15386      230.93498     -65.812972      174.72401      48.453522      50.950241     -13571.87       809.85477      1233.2237      3812.1478    
    165200   99.700424     -425.3875      -44.645999      114.30615      174.78992      48.466         50.887049     -13568.524      809.96185      1226.4824      3806.111     
    165300   100.32261     -534.94149     -157.67859     -70.155719      174.85583      48.448674      50.862718     -13591.159      803.3378       1251.0744      3792.3657    
    165400   100.73502     -895.04254     -92.628785     -45.873625      174.92174      48.473552      50.903888     -13616.948      805.41926      1243.7515      3810.3291    
    165500   100.23564     -371.87796      208.10402     -60.698552      174.98765      48.409937      50.931225     -13594.072      800.96882      1239.9535      3809.0575    
    165600   100.04323     -431.41652      38.880771     -257.12876      175.05356      48.358017      50.988985     -13612.877      803.44361      1238.0257      3833.1594    
    165700   100.26624     -408.89636     -102.70255      175.05388      175.11946      48.307347      50.989219     -13611.034      804.61106      1255.6598      3808.2938    
    165800   100.28222     -415.42672     -56.34387       286.21242      175.18537      48.355391      50.954259     -13611.563      808.66572      1268.3009      3801.4474    
    165900   100.1277      -449.46934      153.42848      43.302384      175.25128      48.387377      50.915605     -13598.982      809.38392      1250.2383      3808.1385    
    166000   100.8495      -553.54622      98.705606     -4.1873338      175.31719      48.401021      50.868439     -13593.806      801.18121      1255.2732      3779.8777    
    166100   99.437493     -576.2412      -21.758817     -65.228202      175.3831       48.398464      50.875373     -13575.319      798.15871      1252.4196      3811.4155    
    166200   99.485846     -670.5937      -204.06041     -77.424666      175.44901      48.428823      50.890572     -13593.816      814.20421      1267.9869      3809.1877    
    166300   99.466274     -401.24538      104.2239      -28.553966      175.51492      48.420207      50.95307      -13607.28       821.36756      1260.4948      3817.9845    
    166400   100.36945     -315.41392      122.28015      72.985362      175.58083      48.388306      50.976178     -13577.068      812.17168      1243.8937      3797.036     
    166500   100.00485     -351.05792      87.38123       60.838444      175.64673      48.373258      50.938583     -13589.079      818.13243      1264.0074      3791.6919    
    166600   100.57094     -369.04175      129.16897      176.37286      175.71264      48.379112      50.893069     -13592.665      797.78137      1254.5502      3800.1534    
    166700   99.530421     -440.78603      72.898672     -13.873049      175.77855      48.364219      50.873173     -13597.342      811.13557      1266.2994      3809.533     
    166800   100.03176     -820.59458     -305.15472      54.621086      175.84446      48.363696      50.933964     -13617.328      811.25988      1236.9527      3839.9831    
    166900   101.01441     -722.40272     -221.84457     -166.23067      175.91037      48.288278      50.978319     -13609.15       793.12011      1249.7203      3812.0046    
    167000   99.974599     -543.22285      39.620057     -111.49779      175.97628      48.227897      50.966662     -13594.791      792.38682      1242.6491      3824.4802    
    167100   101.42043     -576.55291      111.00072     -33.993923      176.04219      48.248593      50.921724     -13621.087      796.98365      1252.2302      3799.1972    
    167200   100.51271     -678.58178      8.6435854      19.532804      176.1081       48.330008      50.900341     -13596.332      791.5328       1259.127       3800.0323    
    167300   99.864738     -432.63058     -20.87496       291.61435      176.174        48.371815      50.836579     -13602.984      803.12159      1269.7544      3803.7304    
    167400   99.497276     -206.93535      100.70562      157.99985      176.23991      48.390388      50.874323     -13597.129      815.75476      1275.4108      3802.2087    
    167500   100.34895     -421.61666      227.66213      26.370428      176.30582      48.374881      50.879843     -13595.611      797.90297      1273.6855      3800.2433    
    167600   99.62446      -359.90694      96.36145       209.57657      176.37173      48.340945      50.859956     -13591.863      813.08375      1247.7245      3828.7885    
    167700   100.62629     -918.26801     -126.62069     -96.842903      176.43764      48.351776      50.907648     -13586.08       794.93175      1255.6615      3812.5443    
    167800   99.94086      -557.91937     -188.345       -106.70863      176.50355      48.365514      50.937489     -13550.122      807.69651      1245.8463      3790.8881    
    167900   100.2298      -495.72351     -143.88282      27.444966      176.56946      48.3577        50.962083     -13580.68       810.62574      1243.0983      3799.5377    
    168000   100.01266     -781.31319      103.12559      26.978343      176.63537      48.280169      50.975862     -13570.011      791.56017      1250.6108      3803.8188    
    168100   99.44048      -638.98855      225.79217      24.806408      176.70127      48.255284      50.986673     -13591.223      821.46867      1256.1531      3811.5459    
    168200   100.81789     -132.6009       41.369664      258.92616      176.76718      48.293681      50.972879     -13587.344      796.67731      1243.7588      3795.6668    
    168300   100.2552      -288.78268      72.578165     -34.434732      176.83309      48.273553      50.967125     -13580.949      811.12338      1245.6404      3784.4259    
    168400   99.098622     -592.82798     -24.631881      181.26184      176.899        48.225486      50.921246     -13599.166      811.06772      1287.11        3799.1107    
    168500   98.958047     -426.2855       137.67308      29.739246      176.96491      48.209148      50.943571     -13597.223      803.38203      1255.0523      3852.5462    
    168600   100.11859     -382.58674     -131.80334     -53.828365      177.03082      48.2213        50.939747     -13612.678      802.72212      1274.5429      3815.252     
    168700   99.799581     -587.80441      6.2566649      55.24097       177.09673      48.216141      50.944248     -13581.598      811.07231      1225.8718      3812.8238    
    168800   100.13229     -486.58896     -14.748125      67.881499      177.16263      48.254669      50.958621     -13584.769      790.98324      1278.2773      3776.7726    
    168900   99.932463     -609.81266     -100.15241      7.0601055      177.22854      48.31588       50.906147     -13567.004      796.53602      1242.5263      3803.1764    
    169000   99.853921     -333.55472      159.33311      121.04881      177.29445      48.313297      50.879885     -13575.245      790.29213      1256.7266      3803.0834    
    169100   99.051141     -384.37673      254.95834      86.799734      177.36036      48.312696      50.854346     -13569.013      809.02225      1254.1661      3817.7563    
    169200   100.88351     -547.42272      36.804598      0.78090611     177.42627      48.349635      50.844682     -13575.808      785.6214       1284.5936      3770.2292    
    169300   99.955671     -408.36944      0.58693231     111.59221      177.49218      48.311329      50.783397     -13575.809      797.99955      1263.9967      3805.1661    
    169400   101.09791     -184.35905      43.725749      125.74052      177.55809      48.29765       50.790959     -13597.703      802.68291      1244.0978      3807.0865    
    169500   99.913751     -294.76789     -120.54231     -140.07393      177.624        48.358859      50.82318      -13587.311      800.66549      1275.0588      3798.231     
    169600   100.45349     -541.82514     -53.225488      2.2243177      177.6899       48.395173      50.822562     -13563.666      818.35019      1233.3094      3783.4672    
    169700   100.68352     -786.51792      10.003736      130.28198      177.75581      48.393724      50.863373     -13581.353      791.20122      1254.5533      3799.1002    
    169800   100.28813     -562.04689      9.5483049      77.751615      177.82172      48.349208      50.849465     -13569.569      785.27292      1263.3588      3800.0529    
    169900   100.18789     -377.10586     -166.70087     -63.147839      177.88763      48.324727      50.82396      -13594.189      801.69487      1250.01        3832.4166    
    170000   100.41134     -579.74331      9.5378178     -29.250597      177.95354      48.328288      50.801436     -13579.102      803.72767      1241.0879      3811.8203    
    170100   100.40486     -520.37614      195.26933      123.6172       178.01945      48.346204      50.768679     -13589.188      803.71766      1255.1226      3810.3862    
    170200   100.82037     -832.90615      46.257567      24.134924      178.08536      48.415313      50.79389      -13596.107      795.92234      1226.5198      3841.9512    
    170300   100.49354     -541.70755     -109.9623      -0.096405594    178.15127      48.44689       50.783872     -13578.108      815.18332      1236.0306      3804.8149    
    170400   100.38808     -511.54369     -129.33894      115.76612      178.21717      48.425554      50.779808     -13567.74       789.2887       1252.0343      3802.1196    
    170500   100.32269     -583.20889      124.57878      19.304401      178.28308      48.404713      50.81417      -13583.197      804.56018      1248.8608      3806.821     
    170600   100.41594     -280.84219     -19.217833      140.79975      178.34899      48.434882      50.809741     -13583.871      791.20632      1239.5971      3828.6967    
    170700   101.11331     -406.58938      107.15343      8.1310819      178.4149       48.406702      50.839645     -13558.283      796.86159      1234.9089      3789.7732    
    170800   101.34069     -655.92855     -151.44709      152.19592      178.48081      48.376927      50.862253     -13571.137      789.06848      1238.0338      3797.9659    
    170900   100.19595     -476.48046     -73.591134      15.522393      178.54672      48.352595      50.92196      -13564.895      807.59948      1251.3576      3787.2557    
    171000   99.779016     -639.70903      39.57591       53.72036       178.61263      48.317066      50.966762     -13570.913      793.75552      1269.9057      3791.838     
    171100   99.847257     -558.56322      7.7991379      28.752219      178.67854      48.266903      50.962723     -13574.266      800.63548      1257.8436      3802.3193    
    171200   100.22406     -670.69027     -169.72191     -173.04931      178.74444      48.235132      50.989923     -13575.747      797.28679      1267.1966      3797.0835    
    171300   100.29259     -407.16911      12.175345      43.703996      178.81035      48.172234      50.992929     -13581.505      803.74898      1258.0027      3791.6552    
    171400   99.646759     -578.94746     -104.05883      63.445617      178.87626      48.214222      51.008869     -13566.914      798.74422      1257.077       3803.1725    
    171500   99.91529      -591.15254     -256.40699     -200.53769      178.94217      48.287946      51.039232     -13542.78       804.3579       1264.9673      3770.1005    
    171600   100.85071     -501.83442     -50.534974     -206.52001      179.00808      48.339149      51.033364     -13540.132      796.64843      1265.6741      3749.9938    
    171700   100.49367     -593.24866      27.436546     -11.141927      179.07399      48.377977      50.977622     -13542.222      816.20053      1237.5426      3777.9782    
    171800   99.150731     -391.12692     -11.385034      217.86394      179.1399       48.381821      50.925289     -13536.903      797.12777      1257.779       3808.8842    
Loop time of 448.741 on 4 procs for 171800 steps with 10000 atoms

Performance: 33.078 ns/day, 0.726 hours/ns, 382.849 timesteps/s, 3.828 Matom-step/s
4.7% CPU use with 4 MPI tasks x 1 OpenMP threads

MPI task timing breakdown:
Section |  min time  |  avg time  |  max time  |%varavg| %total
---------------------------------------------------------------
Pair    | 187.66     | 226.43     | 247.73     | 162.9 | 50.46
Bond    | 41.235     | 47.097     | 50.913     |  55.1 | 10.50
Neigh   | 58.532     | 58.539     | 58.547     |   0.1 | 13.05
Comm    | 60.234     | 85.112     | 130.14     | 309.0 | 18.97
Output  | 5.3908     | 5.7831     | 6.1218     |  11.5 |  1.29
Modify  | 23.256     | 23.905     | 24.487     |   9.2 |  5.33
Other   |            | 1.872      |            |       |  0.42

Nlocal:           2500 ave        2969 max        1956 min
Histogram: 1 0 0 0 1 0 0 1 0 1
Nghost:        8136.75 ave        8528 max        7816 min
Histogram: 1 0 1 0 0 1 0 0 0 1
Neighs:         226490 ave      258286 max      188267 min
Histogram: 1 0 0 1 0 0 0 0 1 1

Total # of neighbors = 905961
Ave neighs/atom = 90.5961
Ave special neighs/atom = 5.988
Neighbor list builds = 8454
Dangerous builds = 0
unfix 1
unfix 2
unfix def1
unfix def2

print "All done"
All done
Total wall time: 0:12:54
